<?xml version="1.0"?><VTKFile type="PolyData" version="0.1" byte_order="LittleEndian">
<PolyData>
<Piece NumberOfLines="1983" NumberOfPoints="1984">
<CellData Scalars=" CellData">
<DataArray type="Float32" Name="time" NumberOfComponents="1" format="ascii" >
0.0501434 0.100576 0.151301 0.202321 0.253641 0.305264 0.357192 0.409431 0.461984 0.514854 0.568046 0.621563 0.675409 0.729589 0.784106 0.838966 0.894171 0.949726 1.00564 1.06191 1.11854 1.17555 1.23292 1.29068 1.34882 1.40735 1.46627 1.52559 1.58532 1.64546 1.70601 1.76699 1.82839 1.89023 1.95251 2.01523 2.07841 2.14204 2.20615 2.27072 2.33578 2.40132 2.46736 2.5339 2.60095 2.66852 2.73661 2.80524 2.87441 2.94413 3.01441 3.08526 3.15669 3.22871 3.30132 3.37455 3.44839 3.52286 3.59796 3.67372 3.75014 3.82723 3.90501 3.98349 4.06267 4.14258 4.22323 4.30462 4.38679 4.46972 4.55346 4.638 4.72337 4.80957 4.89664 4.98458 5.07341 5.16316 5.25383 5.34545 5.43805 5.53163 5.62623 5.72186 5.81854 5.91631 6.01518 6.11518 6.21634 6.31868 6.42223 6.52702 6.63308 6.74045 6.84914 6.95921 7.07068 7.18358 7.29796 7.41386 7.53131 7.65036 7.77105 7.89343 8.01754 8.14345 8.27118 8.40082 8.5324 8.66599 8.80165 8.93945 9.07945 9.22173 9.36636 9.51342 9.663 9.81518 9.97005 10.1277 10.2883 10.4518 10.6185 10.7884 10.9617 11.1384 11.3189 11.5031 11.6913 11.8836 12.0802 12.2814 12.4873 12.6981 12.9142 13.1357 13.363 13.5963 13.8361 14.0826 14.3362 14.5974 14.8667 15 0.740381 1.0627 1.38273 1.79903 2.07548 2.41305 2.76511 3.22309 3.56215 3.80406 4.24901 4.6576 4.99328 5.33156 5.77512 6.34599 6.88812 7.2802 7.78781 8.32964 8.98064 9.60796 9.92497 10.8293 11.7639 12.2594 13.0397 13.6561 14.1384 14.9702 15 1.19284 1.43519 2.56917 2.73492 3.97612 1.53715 1.83955 3.22175 2.7822 4.60005 1.84923 2.08229 3.2084 3.25738 4.37241 2.2886 2.56699 3.7331 3.74055 5.10001 2.55655 2.80624 3.94242 4.43455 5.35556 2.91612 3.17978 4.47214 4.24599 5.91352 3.2981 3.66344 5.17995 4.67912 6.38071 3.75589 4.00941 5.06221 4.95351 6.55904 4.13065 4.5049 6.22244 5.45773 7.64444 4.36252 4.66273 5.97463 5.72892 7.52902 4.8278 5.11683 6.44105 6.68567 7.88975 5.26067 5.59506 7.0245 6.9158 8.40082 5.60184 5.89027 7.1183 6.93809 8.37375 5.9285 6.13971 7.14245 7.35411 8.48147 6.40853 6.67769 7.82411 7.91874 9.06386 7.02074 7.31284 8.57423 8.66449 10.1584 7.58322 7.83895 9.07713 9.16174 10.2396 7.98688 8.24658 9.42672 9.44219 10.9516 8.52429 8.81768 10.1723 9.86306 11.6665 9.09615 9.40018 10.8327 10.3903 12.3816 9.78687 10.0602 11.3136 11.6695 12.6471 10.4581 10.7305 11.9361 12.0074 12.9503 10.796 11.0983 12.5362 11.9929 13.8806 11.7516 12.0645 13.2271 13.0026 14.5361 12.7567 13.0807 14.5087 13.9776 15 13.2754 13.5464 14.5895 14.775 15 14.1215 14.3931 15 15 14.7924 15 15 0.970119 1.36916 1.67185 2.11019 2.58835 3.12088 3.64798 4.29032 4.76411 5.64572 6.53585 7.64995 8.83936 10.3874 11.9955 15 2.00192 2.27615 3.59961 3.4388 4.82937 2.48081 2.74254 3.9193 3.79888 5.15119 2.8402 3.09814 4.28759 4.44587 5.87721 3.35812 3.60384 4.73667 4.76069 6.16385 3.98218 4.30089 5.70589 5.2664 6.90508 4.63624 4.9037 6.06623 5.82485 7.23357 5.33197 5.6445 6.92059 6.51924 8.29422 6.18598 6.48252 7.78605 7.65228 8.88873 6.83587 7.11934 8.3408 8.29896 10.3218 8.12785 8.37911 9.61236 9.79111 10.7779 9.53616 9.77782 10.8288 11.1065 12.2073 11.5017 11.7516 12.844 12.9106 14.6352 14.0471 14.3437 15 15 1.21509 1.57994 1.85849 2.21258 2.50628 2.9026 3.1899 3.70883 4.12088 4.55074 5.04199 5.67648 6.31851 7.17557 7.66499 8.33872 9.17111 10.0636 11.0962 12.376 13.4798 14.6976 15 2.05529 2.2922 3.26981 3.26642 4.56342 2.44974 2.663 3.67198 3.68099 5.05929 2.77611 3.0393 4.3573 4.85438 5.67046 3.16694 3.46988 4.79468 5.00055 6.12209 3.47588 3.70915 4.80408 4.96586 6.33407 3.92353 4.17533 5.27733 5.4415 6.459 4.24334 4.49068 5.62972 6.08014 6.99248 4.83248 5.10209 6.30892 6.02678 7.64015 5.28842 5.53974 6.58035 6.39957 7.80384 5.78995 6.07874 7.37028 7.53524 8.49165 6.35249 6.62338 7.83129 8.22304 9.19585 7.09833 7.38723 8.75622 8.53696 10.1267 7.83725 8.10223 9.34641 9.15829 10.8117 8.85698 9.13136 10.2268 10.6086 11.4906 9.46901 9.78409 11.1027 11.1726 12.3102 10.2817 10.5457 11.7716 11.9616 13.3259 11.3126 11.5943 12.6813 12.5777 14.2383 12.4688 12.7748 14.1251 13.8733 15 13.8402 14.1285 15 15 2.93834 5.87612 1.72788 2.01626 2.33663 2.79967 3.20033 3.52182 3.81464 4.34127 4.71128 5.1424 5.49488 5.91347 6.35892 6.67493 7.12262 7.59579 7.98096 8.28262 8.68589 9.32916 9.8272 10.2985 10.7772 11.3973 11.8534 12.3595 13.0464 13.66 14.5601 15 2.03606 2.31492 3.72537 3.60339 5.27395 2.31581 2.53982 3.63951 3.97515 4.97169 2.66003 2.95698 4.31827 4.35159 6.13113 3.11775 3.38191 4.60504 4.52745 5.89241 3.52129 3.78077 4.96594 5.00466 6.57424 3.87158 4.21653 5.61333 5.36767 6.82282 4.15764 4.44093 5.62943 5.68584 7.01403 4.69506 5.00169 6.40528 6.54535 7.80904 5.05889 5.30993 6.39126 6.30012 7.75228 5.51809 5.81224 7.23036 6.84695 8.50411 5.86292 6.10922 7.17339 7.60757 8.71884 6.30894 6.65145 8.08092 8.12166 9.51881 6.73608 6.98967 8.10945 8.19385 9.40907 7.08163 7.40686 8.91707 8.40064 10.1795 7.52177 7.74891 8.93986 9.18818 10.6337 8.00563 8.30141 9.60057 9.24617 11.0501 8.396 8.65203 9.93192 9.94887 11.3897 8.69934 8.98203 10.3333 10.1323 11.916 9.10664 9.34605 10.553 10.7323 11.9963 9.7693 10.0516 11.3894 11.5854 12.6734 10.2798 10.552 11.8703 11.5796 13.1729 10.7726 11.0439 12.2739 12.4828 13.6941 11.2635 11.5921 12.9762 12.6683 14.5242 11.9034 12.1822 13.492 13.3127 14.9338 12.3701 12.6408 13.931 13.6572 15 12.8839 13.1554 14.4509 14.5528 15 13.5897 13.8877 15 15 14.2206 14.4873 15 15 1.96679 2.4014 2.66613 3.1539 3.75063 4.24361 4.87954 5.58665 6.46384 7.2645 8.51245 10.9756 12.0936 14.8618 15 2.57694 2.85916 4.09558 4.28895 5.76953 3.05395 3.32484 4.53229 4.49401 5.89027 3.34946 3.64564 4.95376 5.0176 6.24759 3.89113 4.16123 5.39578 5.20831 6.61946 4.58121 4.85729 6.07238 6.1361 7.54391 5.14902 5.44652 6.79283 6.53018 8.39179 5.90068 6.18568 7.32684 7.49753 8.68289 6.74776 7.02628 8.3576 8.1507 9.77677 7.844 8.10716 9.12079 9.10916 10.7288 8.89682 9.16673 10.4494 10.3306 12.0335 10.6291 10.9023 12.2445 12.4143 13.8065 14.7355 15 15 2.13047 2.4275 2.71023 3.08103 3.42787 3.6886 4.0679 4.35782 4.65931 5.02747 5.47749 5.81 6.3683 6.79646 7.11685 7.55897 8.13114 8.52507 8.84658 9.30574 9.80669 10.2313 10.7816 11.5902 12.1279 12.8777 13.5914 14.2578 15 2.7241 2.97391 4.20025 4.04197 5.75159 3.04466 3.33099 4.63822 4.35745 5.97086 3.33547 3.60723 4.74068 4.8149 6.01525 3.72425 3.98501 5.06074 5.10505 6.24753 4.07243 4.29183 5.21447 5.41826 6.48975 4.36397 4.62351 5.86642 5.84082 7.223 4.77254 5.11983 6.54226 5.99337 8.1857 5.06642 5.34099 6.48855 6.4901 7.90018 5.37186 5.59678 6.57338 6.93072 7.78404 5.77584 6.05188 7.2195 7.14047 8.81826 6.24772 6.52699 7.68442 7.75775 8.90624 6.60439 6.91673 8.31821 8.28249 9.54976 7.20333 7.54891 8.93456 8.69578 9.982 7.64872 7.90748 9.11388 9.10698 10.4833 8.00829 8.31503 9.76779 9.50368 11.4209 8.46587 8.71643 9.91532 10.0018 11.2754 9.0955 9.40307 10.809 10.6959 11.9834 9.51892 9.8242 11.0295 11.5286 12.2722 9.8446 10.0841 11.2615 11.1899 12.6348 10.3657 10.66 11.9206 11.9592 13.2595 10.8838 11.1757 12.3342 12.9539 13.5809 11.357 11.637 12.9164 12.7606 14.2455 11.9489 12.2261 13.4958 13.389 14.5468 12.8286 13.0609 14.0459 14.3704 15 13.4597 13.7804 15 14.8246 14.2691 14.5601 15 15 3.40797 8.10138 2.82143 3.27066 3.69428 4.11256 4.58559 5.12975 5.82546 6.39938 7.18976 7.83026 8.82962 9.81551 10.9009 12.8733 15 3.35263 3.65289 5.08915 4.81256 6.35918 3.82102 4.07921 5.10128 5.71991 6.32022 4.30257 4.62271 6.01584 5.96385 7.25611 4.75053 5.01911 6.17619 6.41785 7.47784 5.28113 5.62577 7.08858 6.68163 8.80007 5.8739 6.13784 7.28124 7.56118 8.57617 6.65985 6.86946 7.93211 8.20993 9.16583 7.31873 7.60952 9.01659 8.43249 10.3066 8.23531 8.49007 9.57029 9.52971 10.8674 9.00267 9.29462 10.6421 10.7586 11.928 10.2048 10.4504 11.4376 11.5401 13.0621 11.455 11.7396 12.8351 12.9968 14.6307 12.9103 13.2217 14.3849 14.3623 15 2.97729 3.29194 3.57299 3.98126 4.37487 4.77176 5.16151 5.56129 6.34225 6.92232 7.48827 8.33067 9.37181 10.302 11.8173 13.2466 15 3.67719 3.91536 5.0024 4.91625 6.24297 4.03275 4.32631 5.5275 5.44124 6.86799 4.35126 4.60547 5.71201 5.99969 7.03435 4.8333 5.1441 6.55929 6.08798 7.80401 5.25511 5.48233 6.44547 6.49633 7.83216 5.73955 6.00034 7.1239 7.0938 8.18057 6.19762 6.429 7.60944 7.61454 8.99703 6.68205 6.96367 8.10442 8.15999 9.5823 7.66323 7.9896 9.47758 9.09282 10.7854 8.3694 8.60996 9.71292 9.66 11.4722 9.1116 9.3902 10.6883 10.519 11.6656 10.2464 10.5206 11.5942 11.6736 13.002 11.7541 12.0033 13.0985 12.9915 14.31 13.2291 13.4659 14.6215 15 15 4.49382 10.0558 3.58297 3.99142 4.37213 4.8108 5.09937 5.55869 5.8438 6.5069 7.11962 7.53592 8.46987 9.4944 10.7717 11.9573 13.3111 15 4.28383 4.52212 5.57569 5.61343 6.87895 4.77209 5.04371 6.13474 6.11584 7.46501 5.21473 5.50131 6.75601 6.81172 8.39606 5.73075 5.99196 6.99155 7.03082 8.52669 6.07562 6.31311 7.39156 7.47462 8.50358 6.62791 6.84286 7.84498 7.90599 9.03955 6.99963 7.25476 8.44644 8.48389 9.91134 7.84912 8.09331 9.17017 9.39598 10.6983 8.67218 8.90983 10.072 10.1742 11.5202 9.24759 9.50902 10.6009 10.6732 11.7493 10.635 10.8807 11.8915 12.0668 13.2889 12.366 12.618 13.6741 13.7906 15 14.999 15 3.79123 4.05948 4.32554 4.59589 4.85868 5.03515 5.25748 5.63665 5.90474 6.1446 6.65323 7.1586 7.54383 8.02993 8.46375 8.93737 9.39161 9.81964 10.3294 10.8907 11.4658 12.1356 12.9276 13.6266 14.7745 15 4.66491 4.9394 6.21139 6.10975 7.5636 4.95767 5.25983 6.7347 6.23501 7.83984 5.24383 5.52972 6.81332 6.59836 8.31633 5.54835 5.81229 7.03884 7.03512 8.26761 5.84064 6.17723 7.52481 7.47011 8.99985 6.00851 6.24726 7.34309 7.38805 9.18332 6.25403 6.49793 7.54064 7.78339 8.82782 6.68134 6.94337 8.11344 8.05031 9.65585 6.97819 7.22856 8.32363 8.57521 9.92966 7.24674 7.50909 8.69538 8.84048 10.1767 7.81923 8.10205 9.30088 9.4287 10.6422 8.4055 8.74896 10.1554 9.5814 11.3172 8.80446 9.07233 10.1213 10.2747 11.3615 9.38177 9.72127 11.2394 10.9018 12.3346 9.85247 10.1182 11.3631 11.0992 13.143 10.3893 10.6243 11.6756 11.7009 13.0743 10.9194 11.1631 12.2547 12.4068 13.4064 11.4261 11.6716 12.8168 13.0234 14.0381 12.0265 12.2792 13.4373 13.3962 14.7486 12.6942 12.9461 14.0352 14.3334 15 13.3863 13.6506 14.8441 15 15 14.2089 14.484 15 15 5.17004 9.18507 4.75924 5.22238 5.65485 6.14133 6.54804 6.98849 7.82526 8.38302 8.90903 9.57142 10.1878 10.8764 11.4762 12.1422 12.731 13.563 14.3364 15 5.28755 5.50545 6.38919 6.68844 7.74132 5.7861 6.06869 7.30918 7.35872 8.76982 6.22485 6.44957 7.5863 7.57748 8.95005 6.74299 7.01678 8.21084 8.54188 9.47443 7.15532 7.38925 8.51437 8.74555 9.5812 7.62657 7.86816 8.92225 9.39186 10.4409 8.51259 8.7676 9.98648 9.79204 11.4887 9.08971 9.40371 10.6552 10.4831 12.08 9.65169 9.91889 11.1289 10.9367 12.4312 10.3434 10.6278 11.8934 11.882 13.3108 11.0108 11.2765 12.4785 12.3189 13.8896 11.7338 12.0014 13.1028 13.0873 14.3474 12.3741 12.6209 13.6865 13.9634 14.8906 13.1108 13.415 14.8538 14.8254 15 13.7371 14.0414 15 15 14.6325 14.9301 15 15 4.89621 8.82335 8.88826 9.18935 10.3908 10.3113 11.8987 5.13536 5.55719 5.96825 6.21518 6.63249 6.90491 7.27325 7.70678 8.07966 8.55832 8.9347 9.56852 10.0184 10.8094 11.5773 12.1711 12.9962 14.2429 14.9827 15 5.72687 5.97156 7.1815 7.34115 8.47528 6.18147 6.45593 7.62559 7.64174 9.46375 6.63132 6.8824 8.05102 8.06081 9.40612 6.88045 7.14601 8.19166 8.52973 9.55524 7.34886 7.61567 8.77871 8.71948 9.99795 7.64096 7.91405 9.02291 9.14458 10.5108 8.04619 8.31751 9.35248 9.27796 10.8464 8.53138 8.81334 10.0422 10.0688 11.3355 8.94257 9.24288 10.347 10.3616 11.5719 9.47544 9.74474 10.9155 11.0863 12.1519 9.90212 10.1983 11.429 11.2774 12.7333 10.6242 10.913 12.1779 11.9292 13.19 11.1285 11.3631 12.4497 12.9023 13.5756 12.0483 12.3179 13.6598 13.4276 15 12.9668 13.2823 14.62 14.7264 15 13.6763 13.9523 15 15 14.6923 14.9773 15 15 5.55443 6.05701 6.69732 7.04817 7.84852 8.99426 10.407 12.1123 15 6.38084 6.65843 8.02404 8.007 9.14321 7.02286 7.32474 8.71234 8.59841 9.93406 7.83682 8.10291 9.29905 9.39093 10.8224 8.30441 8.58213 9.98699 9.3397 11.3573 9.4587 9.75989 11.0536 11.0253 12.7486 11.3272 11.6296 13.0284 12.7872 14.8196 14.4133 14.6869 15 15 5.88789 6.30304 6.68388 7.19198 7.65758 8.05226 8.46533 9.06644 9.47479 10.1132 10.7984 11.6298 12.6772 14.3467 15 6.75818 7.04966 8.31933 8.18984 9.76849 7.21932 7.50263 8.72805 8.50411 10.2678 7.66701 7.92698 9.27042 9.23545 10.5 8.27124 8.55464 9.71376 9.71741 11.5472 8.81959 9.08932 10.2858 10.0638 11.516 9.29733 9.59329 10.8554 10.6393 12.3301 9.80967 10.0764 11.358 11.3647 13.019 10.5449 10.7754 11.7965 12.1457 13.1801 11.0576 11.315 12.4737 12.4987 13.8134 11.9029 12.1252 13.2109 13.446 14.5405 12.8445 13.1113 14.1899 14.2703 15 14.0294 14.2914 15 15 6.37474 6.95363 12.1199 15 7.83438 8.13557 9.39599 9.1519 10.8028 6.66994 7.16714 7.60914 8.00209 8.55828 9.2388 9.72159 10.2717 11.0214 12.1812 13.3411 15 7.4874 7.70181 8.70991 8.89578 10.2823 8.07691 8.32603 9.36642 9.64099 10.6197 8.62262 8.92847 10.2475 9.80715 11.4217 9.1401 9.49832 10.8639 10.5214 12.1847 9.81329 10.0737 11.2664 11.3425 13.0001 10.7046 10.9454 12.006 12.1141 13.3807 11.381 11.6615 12.8915 12.779 14.1711 12.1571 12.4037 13.4059 13.4135 14.6971 13.3339 13.6274 14.9027 14.796 15 7.20884 7.4798 7.9361 8.39826 8.94032 9.77676 10.4 11.5284 13.6929 15 8.0233 8.27736 9.56851 9.97032 10.9793 8.36926 8.66906 9.91387 9.92986 11.1632 8.92921 9.24124 10.568 10.3877 12.0661 9.53395 9.8275 11.1675 11.2035 12.3767 10.2777 10.5969 11.9573 12.0001 13.4885 11.502 11.7665 12.8542 12.9845 14.355 12.5103 12.7519 13.7669 14.3388 15 14.7517 15 15 7.69676 8.12874 8.54804 8.99375 9.39257 10.0259 10.4756 11.326 12.3453 13.3347 14.5485 15 8.03338 8.31821 9.61853 9.61025 10.9795 8.45697 8.67599 9.62239 9.99114 10.9601 8.91602 9.18523 10.4803 10.5025 11.7403 9.37941 9.64952 10.8919 11.3825 12.3061 9.79718 10.0473 11.0734 11.2775 12.5489 10.4716 10.728 12.0004 11.8192 13.3855 10.9466 11.1896 12.2533 12.3269 13.8772 11.8719 12.1647 13.3853 13.3408 14.7786 12.971 13.2075 14.2637 14.6635 15 14.0686 14.3396 15 15 8.02441 8.56341 8.91946 9.42612 10.0009 10.4468 10.974 11.4626 12.0135 12.5239 13.1393 13.8348 14.5418 15 8.80308 9.06908 10.2067 10.2657 12.0698 9.36396 9.62028 10.8904 11.1928 12.188 9.72962 9.94785 10.9969 11.5393 12.4329 10.286 10.6075 11.9767 11.5105 13.1559 10.8872 11.1654 12.5151 12.2041 14.0037 11.3551 11.6568 13.0365 12.7586 14.2222 11.9006 12.1416 13.1632 13.6422 14.4518 12.4243 12.7265 13.9771 14.2058 15 13.0165 13.3168 14.7611 14.3861 15 13.549 13.8185 15 15 14.1888 14.4126 15 15 14.9344 15 15 8.48565 9.12922 14.9302 9.22096 9.46552 10.5572 10.6451 12.2315 14.9931 15 9.17841 9.66966 15 10.2649 10.5548 11.831 11.9553 13.1651 11.1817 14.2005 10.3251 11.0112 11.6972 12.8051 15 11.0991 11.3284 12.4102 12.4741 14.0542 12.1929 12.4831 13.7793 13.9254 15 13.5688 13.8547 15 14.7783 11.7911 15 11.6127 11.897 12.27 12.7004 13.0241 13.542 13.9709 14.3717 15 12.5156 12.7578 13.8703 13.9087 15 12.8245 13.0924 14.3438 14.2815 15 13.2327 13.5136 14.8072 14.6738 15 13.6972 13.9332 15 14.9694 14.0578 14.3207 15 15 14.643 14.9569 15 15 12.3238 12.7675 13.0158 13.2842 13.7934 14.2142 14.7361 15 12.7759 13.1126 14.448 14.2379 15 13.2114 13.4941 14.6932 14.7853 15 13.4885 13.8345 15 14.8696 13.7413 13.9758 15 15 14.279 14.5968 15 15 14.7146 14.9991 15 15 14.1334 15 14.2053 14.5136 14.7455 15 14.984 15 15 
</DataArray>
<DataArray type="Float32" Name="type" NumberOfComponents="1" format="ascii" >
1 1 1 1 1 1 1 1 1 1 1 1 1 1 1 1 1 1 1 1 1 1 1 1 1 1 1 1 1 1 1 1 1 1 1 1 1 1 1 1 1 1 1 1 1 1 1 1 1 1 1 1 1 1 1 1 1 1 1 1 1 1 1 1 1 1 1 1 1 1 1 1 1 1 1 1 1 1 1 1 1 1 1 1 1 1 1 1 1 1 1 1 1 1 1 1 1 1 1 1 1 1 1 1 1 1 1 1 1 1 1 1 1 1 1 1 1 1 1 1 1 1 1 1 1 1 1 1 1 1 1 1 1 1 1 1 1 1 1 1 1 1 1 1 2 2 2 2 2 2 2 2 2 2 2 2 2 2 2 2 2 2 2 2 2 2 2 2 2 2 2 2 2 2 2 3 3 3 4 4 3 3 3 4 4 3 3 3 4 4 3 3 3 4 4 3 3 3 4 4 3 3 3 4 4 3 3 3 4 4 3 3 3 4 4 3 3 3 4 4 3 3 3 4 4 3 3 3 4 4 3 3 3 4 4 3 3 3 4 4 3 3 3 4 4 3 3 3 4 4 3 3 3 4 4 3 3 3 4 4 3 3 3 4 4 3 3 3 4 4 3 3 3 4 4 3 3 3 4 4 3 3 3 4 4 3 3 3 4 4 3 3 3 4 4 3 3 3 4 4 3 3 3 4 4 3 3 3 4 3 3 4 2 2 2 2 2 2 2 2 2 2 2 2 2 2 2 2 3 3 3 4 4 3 3 3 4 4 3 3 3 4 4 3 3 3 4 4 3 3 3 4 4 3 3 3 4 4 3 3 3 4 4 3 3 3 4 4 3 3 3 4 4 3 3 3 4 4 3 3 3 4 4 3 3 3 4 4 3 3 3 4 2 2 2 2 2 2 2 2 2 2 2 2 2 2 2 2 2 2 2 2 2 2 2 3 3 3 4 4 3 3 3 4 4 3 3 3 4 4 3 3 3 4 4 3 3 3 4 4 3 3 3 4 4 3 3 3 4 4 3 3 3 4 4 3 3 3 4 4 3 3 3 4 4 3 3 3 4 4 3 3 3 4 4 3 3 3 4 4 3 3 3 4 4 3 3 3 4 4 3 3 3 4 4 3 3 3 4 4 3 3 3 4 4 3 3 3 4 2 2 2 2 2 2 2 2 2 2 2 2 2 2 2 2 2 2 2 2 2 2 2 2 2 2 2 2 2 2 2 2 3 3 3 4 4 3 3 3 4 4 3 3 3 4 4 3 3 3 4 4 3 3 3 4 4 3 3 3 4 4 3 3 3 4 4 3 3 3 4 4 3 3 3 4 4 3 3 3 4 4 3 3 3 4 4 3 3 3 4 4 3 3 3 4 4 3 3 3 4 4 3 3 3 4 4 3 3 3 4 4 3 3 3 4 4 3 3 3 4 4 3 3 3 4 4 3 3 3 4 4 3 3 3 4 4 3 3 3 4 4 3 3 3 4 4 3 3 3 4 4 3 3 3 4 4 3 3 3 4 4 3 3 3 4 3 3 3 4 2 2 2 2 2 2 2 2 2 2 2 2 2 2 2 3 3 3 4 4 3 3 3 4 4 3 3 3 4 4 3 3 3 4 4 3 3 3 4 4 3 3 3 4 4 3 3 3 4 4 3 3 3 4 4 3 3 3 4 4 3 3 3 4 4 3 3 3 4 4 3 3 4 2 2 2 2 2 2 2 2 2 2 2 2 2 2 2 2 2 2 2 2 2 2 2 2 2 2 2 2 2 3 3 3 4 4 3 3 3 4 4 3 3 3 4 4 3 3 3 4 4 3 3 3 4 4 3 3 3 4 4 3 3 3 4 4 3 3 3 4 4 3 3 3 4 4 3 3 3 4 4 3 3 3 4 4 3 3 3 4 4 3 3 3 4 4 3 3 3 4 4 3 3 3 4 4 3 3 3 4 4 3 3 3 4 4 3 3 3 4 4 3 3 3 4 4 3 3 3 4 4 3 3 3 4 4 3 3 3 4 4 3 3 3 4 4 3 3 3 4 4 3 3 3 4 3 3 3 4 2 2 2 2 2 2 2 2 2 2 2 2 2 2 2 2 2 3 3 3 4 4 3 3 3 4 4 3 3 3 4 4 3 3 3 4 4 3 3 3 4 4 3 3 3 4 4 3 3 3 4 4 3 3 3 4 4 3 3 3 4 4 3 3 3 4 4 3 3 3 4 4 3 3 3 4 4 3 3 3 4 4 2 2 2 2 2 2 2 2 2 2 2 2 2 2 2 2 2 3 3 3 4 4 3 3 3 4 4 3 3 3 4 4 3 3 3 4 4 3 3 3 4 4 3 3 3 4 4 3 3 3 4 4 3 3 3 4 4 3 3 3 4 4 3 3 3 4 4 3 3 3 4 4 3 3 3 4 4 3 3 3 4 4 3 3 3 4 4 2 2 2 2 2 2 2 2 2 2 2 2 2 2 2 2 2 2 3 3 3 4 4 3 3 3 4 4 3 3 3 4 4 3 3 3 4 4 3 3 3 4 4 3 3 3 4 4 3 3 3 4 4 3 3 3 4 4 3 3 3 4 4 3 3 3 4 4 3 3 3 4 4 3 3 3 4 4 3 3 2 2 2 2 2 2 2 2 2 2 2 2 2 2 2 2 2 2 2 2 2 2 2 2 2 2 3 3 3 4 4 3 3 3 4 4 3 3 3 4 4 3 3 3 4 4 3 3 3 4 4 3 3 3 4 4 3 3 3 4 4 3 3 3 4 4 3 3 3 4 4 3 3 3 4 4 3 3 3 4 4 3 3 3 4 4 3 3 3 4 4 3 3 3 4 4 3 3 3 4 4 3 3 3 4 4 3 3 3 4 4 3 3 3 4 4 3 3 3 4 4 3 3 3 4 4 3 3 3 4 4 3 3 3 4 2 2 2 2 2 2 2 2 2 2 2 2 2 2 2 2 2 2 2 2 3 3 3 4 4 3 3 3 4 4 3 3 3 4 4 3 3 3 4 4 3 3 3 4 4 3 3 3 4 4 3 3 3 4 4 3 3 3 4 4 3 3 3 4 4 3 3 3 4 4 3 3 3 4 4 3 3 3 4 4 3 3 3 4 4 3 3 3 4 4 3 3 3 4 3 3 3 4 2 2 3 3 3 4 4 2 2 2 2 2 2 2 2 2 2 2 2 2 2 2 2 2 2 2 2 3 3 3 4 4 3 3 3 4 4 3 3 3 4 4 3 3 3 4 4 3 3 3 4 4 3 3 3 4 4 3 3 3 4 4 3 3 3 4 4 3 3 3 4 4 3 3 3 4 4 3 3 3 4 4 3 3 3 4 4 3 3 3 4 4 3 3 3 4 4 3 3 3 4 4 3 3 3 4 3 3 3 4 2 2 2 2 2 2 2 2 2 3 3 3 4 4 3 3 3 4 4 3 3 3 4 4 3 3 3 4 4 3 3 3 4 4 3 3 3 4 4 3 3 3 4 2 2 2 2 2 2 2 2 2 2 2 2 2 2 2 3 3 3 4 4 3 3 3 4 4 3 3 3 4 4 3 3 3 4 4 3 3 3 4 4 3 3 3 4 4 3 3 3 4 4 3 3 3 4 4 3 3 3 4 4 3 3 3 4 4 3 3 3 4 4 3 3 3 4 2 2 2 2 3 3 3 4 4 2 2 2 2 2 2 2 2 2 2 2 2 3 3 3 4 4 3 3 3 4 4 3 3 3 4 4 3 3 3 4 4 3 3 3 4 4 3 3 3 4 4 3 3 3 4 4 3 3 3 4 4 3 3 3 4 4 2 2 2 2 2 2 2 2 2 2 3 3 3 4 4 3 3 3 4 4 3 3 3 4 4 3 3 3 4 4 3 3 3 4 4 3 3 3 4 4 3 3 3 4 4 3 3 4 2 2 2 2 2 2 2 2 2 2 2 2 3 3 3 4 4 3 3 3 4 4 3 3 3 4 4 3 3 3 4 4 3 3 3 4 4 3 3 3 4 4 3 3 3 4 4 3 3 3 4 4 3 3 3 4 4 3 3 3 4 2 2 2 2 2 2 2 2 2 2 2 2 2 2 3 3 3 4 4 3 3 3 4 4 3 3 3 4 4 3 3 3 4 4 3 3 3 4 4 3 3 3 4 4 3 3 3 4 4 3 3 3 4 4 3 3 3 4 4 3 3 3 4 3 3 3 4 3 3 4 2 2 2 3 3 3 4 4 3 3 2 2 2 3 3 3 4 4 2 2 2 2 2 2 2 3 3 3 4 4 3 3 3 4 4 3 3 3 4 2 2 2 2 2 2 2 2 2 2 2 3 3 3 4 4 3 3 3 4 4 3 3 3 4 4 3 3 3 4 3 3 3 4 3 3 3 4 2 2 2 2 2 2 2 2 3 3 3 4 4 3 3 3 4 4 3 3 3 4 3 3 3 4 3 3 3 4 3 3 3 4 2 2 2 2 2 2 3 3 2 
</DataArray>
<DataArray type="Float32" Name="order" NumberOfComponents="1" format="ascii" >
0 0 0 0 0 0 0 0 0 0 0 0 0 0 0 0 0 0 0 0 0 0 0 0 0 0 0 0 0 0 0 0 0 0 0 0 0 0 0 0 0 0 0 0 0 0 0 0 0 0 0 0 0 0 0 0 0 0 0 0 0 0 0 0 0 0 0 0 0 0 0 0 0 0 0 0 0 0 0 0 0 0 0 0 0 0 0 0 0 0 0 0 0 0 0 0 0 0 0 0 0 0 0 0 0 0 0 0 0 0 0 0 0 0 0 0 0 0 0 0 0 0 0 0 0 0 0 0 0 0 0 0 0 0 0 0 0 0 0 0 0 0 0 0 1 1 1 1 1 1 1 1 1 1 1 1 1 1 1 1 1 1 1 1 1 1 1 1 1 1 1 1 1 1 1 2 2 2 3 3 2 2 2 3 3 2 2 2 3 3 2 2 2 3 3 2 2 2 3 3 2 2 2 3 3 2 2 2 3 3 2 2 2 3 3 2 2 2 3 3 2 2 2 3 3 2 2 2 3 3 2 2 2 3 3 2 2 2 3 3 2 2 2 3 3 2 2 2 3 3 2 2 2 3 3 2 2 2 3 3 2 2 2 3 3 2 2 2 3 3 2 2 2 3 3 2 2 2 3 3 2 2 2 3 3 2 2 2 3 3 2 2 2 3 3 2 2 2 3 3 2 2 2 3 3 2 2 2 3 2 2 3 1 1 1 1 1 1 1 1 1 1 1 1 1 1 1 1 2 2 2 3 3 2 2 2 3 3 2 2 2 3 3 2 2 2 3 3 2 2 2 3 3 2 2 2 3 3 2 2 2 3 3 2 2 2 3 3 2 2 2 3 3 2 2 2 3 3 2 2 2 3 3 2 2 2 3 3 2 2 2 3 1 1 1 1 1 1 1 1 1 1 1 1 1 1 1 1 1 1 1 1 1 1 1 2 2 2 3 3 2 2 2 3 3 2 2 2 3 3 2 2 2 3 3 2 2 2 3 3 2 2 2 3 3 2 2 2 3 3 2 2 2 3 3 2 2 2 3 3 2 2 2 3 3 2 2 2 3 3 2 2 2 3 3 2 2 2 3 3 2 2 2 3 3 2 2 2 3 3 2 2 2 3 3 2 2 2 3 3 2 2 2 3 3 2 2 2 3 1 1 1 1 1 1 1 1 1 1 1 1 1 1 1 1 1 1 1 1 1 1 1 1 1 1 1 1 1 1 1 1 2 2 2 3 3 2 2 2 3 3 2 2 2 3 3 2 2 2 3 3 2 2 2 3 3 2 2 2 3 3 2 2 2 3 3 2 2 2 3 3 2 2 2 3 3 2 2 2 3 3 2 2 2 3 3 2 2 2 3 3 2 2 2 3 3 2 2 2 3 3 2 2 2 3 3 2 2 2 3 3 2 2 2 3 3 2 2 2 3 3 2 2 2 3 3 2 2 2 3 3 2 2 2 3 3 2 2 2 3 3 2 2 2 3 3 2 2 2 3 3 2 2 2 3 3 2 2 2 3 3 2 2 2 3 2 2 2 3 1 1 1 1 1 1 1 1 1 1 1 1 1 1 1 2 2 2 3 3 2 2 2 3 3 2 2 2 3 3 2 2 2 3 3 2 2 2 3 3 2 2 2 3 3 2 2 2 3 3 2 2 2 3 3 2 2 2 3 3 2 2 2 3 3 2 2 2 3 3 2 2 3 1 1 1 1 1 1 1 1 1 1 1 1 1 1 1 1 1 1 1 1 1 1 1 1 1 1 1 1 1 2 2 2 3 3 2 2 2 3 3 2 2 2 3 3 2 2 2 3 3 2 2 2 3 3 2 2 2 3 3 2 2 2 3 3 2 2 2 3 3 2 2 2 3 3 2 2 2 3 3 2 2 2 3 3 2 2 2 3 3 2 2 2 3 3 2 2 2 3 3 2 2 2 3 3 2 2 2 3 3 2 2 2 3 3 2 2 2 3 3 2 2 2 3 3 2 2 2 3 3 2 2 2 3 3 2 2 2 3 3 2 2 2 3 3 2 2 2 3 3 2 2 2 3 2 2 2 3 1 1 1 1 1 1 1 1 1 1 1 1 1 1 1 1 1 2 2 2 3 3 2 2 2 3 3 2 2 2 3 3 2 2 2 3 3 2 2 2 3 3 2 2 2 3 3 2 2 2 3 3 2 2 2 3 3 2 2 2 3 3 2 2 2 3 3 2 2 2 3 3 2 2 2 3 3 2 2 2 3 3 1 1 1 1 1 1 1 1 1 1 1 1 1 1 1 1 1 2 2 2 3 3 2 2 2 3 3 2 2 2 3 3 2 2 2 3 3 2 2 2 3 3 2 2 2 3 3 2 2 2 3 3 2 2 2 3 3 2 2 2 3 3 2 2 2 3 3 2 2 2 3 3 2 2 2 3 3 2 2 2 3 3 2 2 2 3 3 1 1 1 1 1 1 1 1 1 1 1 1 1 1 1 1 1 1 2 2 2 3 3 2 2 2 3 3 2 2 2 3 3 2 2 2 3 3 2 2 2 3 3 2 2 2 3 3 2 2 2 3 3 2 2 2 3 3 2 2 2 3 3 2 2 2 3 3 2 2 2 3 3 2 2 2 3 3 2 2 1 1 1 1 1 1 1 1 1 1 1 1 1 1 1 1 1 1 1 1 1 1 1 1 1 1 2 2 2 3 3 2 2 2 3 3 2 2 2 3 3 2 2 2 3 3 2 2 2 3 3 2 2 2 3 3 2 2 2 3 3 2 2 2 3 3 2 2 2 3 3 2 2 2 3 3 2 2 2 3 3 2 2 2 3 3 2 2 2 3 3 2 2 2 3 3 2 2 2 3 3 2 2 2 3 3 2 2 2 3 3 2 2 2 3 3 2 2 2 3 3 2 2 2 3 3 2 2 2 3 3 2 2 2 3 1 1 1 1 1 1 1 1 1 1 1 1 1 1 1 1 1 1 1 1 2 2 2 3 3 2 2 2 3 3 2 2 2 3 3 2 2 2 3 3 2 2 2 3 3 2 2 2 3 3 2 2 2 3 3 2 2 2 3 3 2 2 2 3 3 2 2 2 3 3 2 2 2 3 3 2 2 2 3 3 2 2 2 3 3 2 2 2 3 3 2 2 2 3 2 2 2 3 1 1 2 2 2 3 3 1 1 1 1 1 1 1 1 1 1 1 1 1 1 1 1 1 1 1 1 2 2 2 3 3 2 2 2 3 3 2 2 2 3 3 2 2 2 3 3 2 2 2 3 3 2 2 2 3 3 2 2 2 3 3 2 2 2 3 3 2 2 2 3 3 2 2 2 3 3 2 2 2 3 3 2 2 2 3 3 2 2 2 3 3 2 2 2 3 3 2 2 2 3 3 2 2 2 3 2 2 2 3 1 1 1 1 1 1 1 1 1 2 2 2 3 3 2 2 2 3 3 2 2 2 3 3 2 2 2 3 3 2 2 2 3 3 2 2 2 3 3 2 2 2 3 1 1 1 1 1 1 1 1 1 1 1 1 1 1 1 2 2 2 3 3 2 2 2 3 3 2 2 2 3 3 2 2 2 3 3 2 2 2 3 3 2 2 2 3 3 2 2 2 3 3 2 2 2 3 3 2 2 2 3 3 2 2 2 3 3 2 2 2 3 3 2 2 2 3 1 1 1 1 2 2 2 3 3 1 1 1 1 1 1 1 1 1 1 1 1 2 2 2 3 3 2 2 2 3 3 2 2 2 3 3 2 2 2 3 3 2 2 2 3 3 2 2 2 3 3 2 2 2 3 3 2 2 2 3 3 2 2 2 3 3 1 1 1 1 1 1 1 1 1 1 2 2 2 3 3 2 2 2 3 3 2 2 2 3 3 2 2 2 3 3 2 2 2 3 3 2 2 2 3 3 2 2 2 3 3 2 2 3 1 1 1 1 1 1 1 1 1 1 1 1 2 2 2 3 3 2 2 2 3 3 2 2 2 3 3 2 2 2 3 3 2 2 2 3 3 2 2 2 3 3 2 2 2 3 3 2 2 2 3 3 2 2 2 3 3 2 2 2 3 1 1 1 1 1 1 1 1 1 1 1 1 1 1 2 2 2 3 3 2 2 2 3 3 2 2 2 3 3 2 2 2 3 3 2 2 2 3 3 2 2 2 3 3 2 2 2 3 3 2 2 2 3 3 2 2 2 3 3 2 2 2 3 2 2 2 3 2 2 3 1 1 1 2 2 2 3 3 2 2 1 1 1 2 2 2 3 3 1 1 1 1 1 1 1 2 2 2 3 3 2 2 2 3 3 2 2 2 3 1 1 1 1 1 1 1 1 1 1 1 2 2 2 3 3 2 2 2 3 3 2 2 2 3 3 2 2 2 3 2 2 2 3 2 2 2 3 1 1 1 1 1 1 1 1 2 2 2 3 3 2 2 2 3 3 2 2 2 3 2 2 2 3 2 2 2 3 2 2 2 3 1 1 1 1 1 1 2 2 1 
</DataArray>
<DataArray type="Float32" Name="radius" NumberOfComponents="1" format="ascii" >