<?xml version="1.0"?><VTKFile type="PolyData" version="0.1" byte_order="LittleEndian">
<PolyData>
<Piece NumberOfLines="10596" NumberOfPoints="10598">
<CellData Scalars=" CellData">
<DataArray type="Float32" Name="time" NumberOfComponents="1" format="ascii" >
0.0250375 0.0501503 0.0753389 0.100604 0.125945 0.151364 0.17686 0.202434 0.228087 0.253819 0.27963 0.305522 0.331494 0.357547 0.383682 0.409898 0.436197 0.46258 0.489046 0.515596 0.542231 0.568951 0.595756 0.622649 0.649628 0.676694 0.703849 0.731092 0.758424 0.785846 0.813358 0.840962 0.868657 0.896444 0.924323 0.952297 0.980364 1.00853 1.03678 1.06514 1.09359 1.12213 1.15078 1.17952 1.20836 1.23731 1.26635 1.2955 1.32474 1.35409 1.38355 1.4131 1.44277 1.47253 1.50241 1.53239 1.56248 1.59268 1.62299 1.65341 1.68394 1.71458 1.74534 1.7762 1.80719 1.83829 1.8695 1.90083 1.93228 1.96385 1.99554 2.02735 2.05928 2.09134 2.12351 2.15581 2.18824 2.2208 2.25348 2.28629 2.31923 2.35229 2.3855 2.41883 2.4523 2.4859 2.51963 2.55351 2.58752 2.62167 2.65596 2.6904 2.72497 2.75969 2.79456 2.82957 2.86473 2.90003 2.93549 2.9711 3.00686 3.04277 3.07884 3.11507 3.15145 3.18799 3.22469 3.26156 3.29859 3.33578 3.37314 3.41067 3.44837 3.48624 3.52428 3.56249 3.60088 3.63945 3.6782 3.71713 3.75624 3.79553 3.83501 3.87468 3.91454 3.95458 3.99483 4.03526 4.07589 4.11673 4.15776 4.19899 4.24043 4.28208 4.32393 4.366 4.40828 4.45077 4.49348 4.53641 4.57956 4.62294 4.66654 4.71038 4.75444 4.79874 4.84327 4.88804 4.93306 4.97831 5.02382 5.06957 5.11558 5.16184 5.20836 5.25513 5.30218 5.34949 5.39706 5.44492 5.49304 5.54145 5.59014 5.63911 5.68837 5.73793 5.78778 5.83793 5.88838 5.93914 5.99021 6.0416 6.0933 6.14533 6.19768 6.25036 6.30337 6.35673 6.41043 6.46447 6.51887 6.57362 6.62874 6.68422 6.74008 6.7963 6.85292 6.90991 6.9673 7.02509 7.08327 7.14187 7.20088 7.26031 7.32017 7.38046 7.44119 7.50236 7.56398 7.62606 7.68861 7.75163 7.81513 7.87911 7.94359 8.00857 8.07407 8.14007 8.20661 8.27368 8.34129 8.40945 8.47818 8.54747 8.61735 8.68781 8.75887 8.83055 8.90284 8.97577 9.04934 9.12356 9.19845 9.27402 9.35027 9.42723 9.50491 9.58331 9.66246 9.74236 9.82304 9.9045 9.98677 10.0699 10.1538 10.2385 10.3242 10.4107 10.4982 10.5865 10.6758 10.7661 10.8574 10.9496 11.0429 11.1373 11.2327 11.3292 11.4269 11.5257 11.6257 11.7269 11.8294 11.9331 12.0381 12.1445 12.2523 12.3614 12.472 12.5841 12.6977 12.8129 12.9297 13.0481 13.1682 13.2901 13.4138 13.5394 13.6669 13.7964 13.9279 14.0615 14.1972 14.3353 14.4756 14.6183 14.7635 14.9113 15.0618 15.215 15.3711 15.5301 15.6923 15.8576 16.0263 16.1985 16.3743 16.5539 16.7374 16.925 17.117 17.3135 17.5147 17.7209 17.9323 18.1492 18.3719 18.6006 18.8359 19.0779 19.3272 19.5841 19.8492 20.123 20.4061 20.6991 21.0028 21.3179 21.6454 21.9863 22.3417 22.7128 23.1013 23.5087 23.937 24.3884 24.8657 25.3719 25.9108 26.4869 27.1057 27.7741 28.5006 29.2964 30 0.648259 0.728778 0.810543 0.865339 0.949264 1.03454 1.12122 1.20935 1.24328 1.33348 1.42526 1.51865 1.59881 1.69536 1.7937 1.89391 1.99606 2.09177 2.19786 2.30612 2.41665 2.52955 2.64491 2.65093 2.769 2.88977 3.01338 3.09134 3.21981 3.35148 3.48652 3.62511 3.74112 3.88664 4.03629 4.19031 4.30073 4.46278 4.62996 4.8026 4.88552 5.06688 5.25469 5.44942 5.65161 5.80888 6.02562 6.25163 6.48774 6.73492 6.99423 7.02104 7.29518 7.58433 7.89023 8.21496 8.56097 8.93125 8.93376 9.33218 9.76313 10.2324 10.6379 11.1964 11.821 12.5294 13.1054 14.0269 15.144 16.5627 18.5084 21.6227 30 1.47337 1.55837 1.69574 1.78749 2.98191 1.59287 1.66484 1.77363 2.00379 3.02887 3.04338 3.14183 3.41463 4.13298 1.8833 1.88983 1.9586 2.0638 2.12837 2.70929 3.22595 2.02715 2.11791 2.27808 3.44869 3.28532 3.36522 3.48789 3.76349 4.83341 2.28806 2.36329 2.4781 2.54833 3.14698 3.76246 2.42111 2.49677 2.64397 3.48384 3.82334 3.90812 4.04876 4.56588 5.26775 2.85399 2.8629 2.94884 3.08064 3.16181 3.94146 4.52469 3.01552 3.10558 3.27408 4.3328 4.58511 4.66799 4.80068 5.16749 6.07765 3.4879 3.57002 3.69779 3.77818 5.04907 3.63067 3.71235 3.82788 4.02721 5.5122 5.09935 5.16878 5.28173 5.62936 6.31827 4.00251 4.00749 4.08026 4.19416 4.2665 5.36489 4.12398 4.19639 4.34267 5.10562 5.42164 5.50174 5.63918 6.72279 4.78695 4.78752 4.872 4.99783 5.07222 5.5281 6.52279 4.95227 5.04071 5.22934 6.09755 6.57435 6.64729 6.77321 7.74988 5.45104 5.51807 5.62279 5.68909 6.71297 5.57001 5.64871 5.78463 6.83713 6.76656 6.84197 6.97036 7.78055 8.00474 6.19481 6.20778 6.28991 6.41254 6.48529 6.94224 7.87609 6.36146 6.43214 6.54351 6.82532 7.66877 7.92589 7.99365 8.10014 8.3661 9.18472 7.38935 7.46922 7.59277 7.66985 8.92108 8.92108 7.51879 7.58945 7.71535 8.61226 8.97886 9.06183 9.21094 10.2497 9.0807 9.15621 9.27057 9.33977 9.85468 10.5831 9.22338 9.30788 9.47752 10.3758 10.6477 10.7379 10.8884 11.4806 12.172 12.1782 12.1837 12.2531 12.3577 12.4204 12.8531 13.5744 12.3225 12.4088 12.5915 13.4464 13.6395 13.7353 13.9214 14.9888 15.8919 15.8945 15.9646 16.0745 16.1445 17.2008 16.0191 16.1009 16.2312 16.5805 17.5052 17.2501 17.3168 17.421 17.6714 18.5075 0.857125 0.929366 1.0026 1.06042 1.13547 1.2116 1.28882 1.36718 1.4467 1.45774 1.53863 1.62075 1.70416 1.74483 1.83021 1.91697 2.00517 2.09484 2.18604 2.27882 2.32671 2.42198 2.51898 2.61777 2.71842 2.81032 2.91469 3.02114 3.12975 3.24061 3.35382 3.46947 3.48644 3.60503 3.7263 3.85038 3.97741 4.10753 4.14897 4.28338 4.42125 4.56277 4.69559 4.84466 4.998 5.15586 5.31853 5.48629 5.55919 5.7348 5.91636 6.1043 6.29908 6.50122 6.67619 6.89338 7.11977 7.35616 7.60348 7.86278 7.91767 8.19306 8.48339 8.79038 9.11606 9.46286 9.51572 9.89036 10.2932 10.7289 11.2032 11.6933 12.2664 12.9084 13.638 14.483 15.3466 16.5474 18.0982 20.2904 24.0676 30 1.50547 1.51487 1.59822 1.72263 1.79637 2.25724 3.21286 1.6804 1.76705 1.91269 2.55264 3.12908 3.26704 3.34226 3.46619 3.89008 4.56234 1.92351 1.99592 2.10875 2.17991 3.29189 2.05316 2.13568 2.26787 2.63438 3.53813 3.35108 3.43405 3.5739 4.22185 4.73262 2.2381 2.24229 2.31829 2.44038 2.52112 3.60033 2.35894 2.43263 2.54138 2.75337 3.90164 3.65913 3.74513 3.90805 4.90021 2.87427 2.95102 3.06984 3.14404 4.33993 3.01089 3.09318 3.22481 3.58699 4.49455 4.39822 4.48089 4.62447 5.71946 3.40338 3.40603 3.47719 3.58593 3.65257 4.23684 4.79461 3.53904 3.61193 3.71563 3.89725 5.19523 4.8561 4.94781 5.13294 6.10044 4.15762 4.23053 4.34108 4.40809 4.91574 5.60463 4.29976 4.39057 4.58662 5.46451 5.65463 5.72438 5.84064 6.29188 6.83516 4.91347 4.99579 5.12215 5.20009 5.97253 6.51035 5.05914 5.14418 5.29697 6.36218 6.568 6.65326 6.82049 7.75613 5.53145 5.59969 5.7064 5.77407 6.81085 5.65107 5.72372 5.82891 6.0225 7.23547 6.87812 6.98187 7.21949 8.15307 6.56082 6.56263 6.6513 6.79089 6.88031 8.20384 6.69419 6.76609 6.88614 7.36365 7.90761 8.26592 8.35248 8.49646 9.04236 9.73486 7.90786 7.98802 8.11319 8.19238 9.42154 8.04133 8.12018 8.24646 8.59622 9.4606 9.48422 9.57057 9.71026 10.1228 11.0139 9.52191 9.5351 9.63068 9.77807 9.86959 10.9864 11.3614 9.68364 9.75145 9.85328 10.0637 11.0541 11.4067 11.4742 11.6109 12.3212 11.7641 11.8435 11.9654 12.0404 12.7562 13.313 11.9082 11.9896 12.1161 12.4156 13.45 13.3811 13.4841 13.7013 14.726 15.5043 15.5665 15.6613 15.7192 16.2084 16.7245 15.6272 15.7071 15.8533 16.8224 16.7804 16.86 17.0003 18.0317 1.07302 1.13841 1.15348 1.22002 1.28752 1.35601 1.42552 1.47482 1.54613 1.61855 1.69211 1.76685 1.8428 1.86847 1.9461 2.02505 2.10536 2.17098 2.25385 2.33822 2.42415 2.51168 2.60089 2.69183 2.70677 2.79982 2.89476 2.99167 3.09063 3.19174 3.19319 3.29656 3.40227 3.51043 3.62116 3.73457 3.78143 3.89885 4.0193 4.14294 4.26994 4.34273 4.47536 4.61187 4.75248 4.89746 5.04708 5.15145 5.30958 5.47325 5.64286 5.81886 5.90814 6.09464 6.28889 6.49157 6.59568 6.81244 7.03976 7.2787 7.36717 7.62394 7.89566 8.18416 8.49166 8.82083 8.90247 9.26311 9.65393 10.0805 10.5499 11.0718 11.3152 11.9365 12.6532 13.5003 14.5357 15.8679 17.7389 20.9081 30 1.764 1.83325 1.94189 2.01113 3.05802 1.88937 1.98034 2.15846 3.15944 3.10881 3.17949 3.2966 3.72053 4.31567 2.13956 2.15251 2.235 2.36029 2.43639 3.02817 3.77327 2.31394 2.41717 2.62643 3.70925 3.82658 3.89975 4.01706 4.34419 5.1412 2.58846 2.59276 2.67128 2.79433 2.87262 4.05524 2.72133 2.80075 2.94023 3.97278 4.11026 4.19602 4.40193 5.13271 2.93809 2.93921 3.01525 3.13301 3.20661 4.38783 3.0773 3.16931 3.34782 4.37318 4.44513 4.52838 4.68305 5.67223 3.56845 3.57441 3.65148 3.76838 3.83926 4.3792 5.09708 3.71833 3.79924 3.94002 5.00859 5.15968 5.2455 5.38267 5.7583 6.7091 4.14572 4.1465 4.21351 4.31617 4.37933 4.97074 5.44903 4.27608 4.36205 4.5281 5.49263 5.5311 5.63935 5.79879 6.10759 7.80715 4.87943 4.89582 4.98179 5.11688 5.20319 6.48055 5.03091 5.11515 5.28353 6.1842 6.54365 6.63393 6.79452 7.94361 5.57442 5.64451 5.75472 5.82519 6.88469 5.69343 5.77083 5.90103 6.48052 6.98619 6.94229 7.01997 7.13974 7.41376 8.43531 6.66187 6.74583 6.87711 6.96035 8.23961 6.79247 6.86326 6.97622 7.28233 8.07437 8.29975 8.38151 8.50974 8.82695 9.82372 7.72671 7.72834 7.80601 7.93055 8.01266 9.12248 7.85883 7.95255 8.10636 8.61424 9.48217 9.17321 9.2442 9.36335 9.87578 10.3622 8.78027 8.78285 8.87802 9.02565 9.11815 10.59 8.92985 9.00217 9.11571 9.39773 10.2761 10.6442 10.7181 10.8347 11.1323 12.0067 10.0371 10.0382 10.1031 10.2015 10.261 10.7058 11.3269 10.1637 10.2358 10.3553 10.793 11.3925 11.3803 11.453 11.5676 11.8575 12.7261 13.1963 13.207 13.2829 13.404 13.4831 14.5753 13.329 13.4092 13.5374 13.8882 14.7771 14.6345 14.7185 14.8646 15.9743 1.3024 1.36829 1.43502 1.5026 1.57104 1.57803 1.64747 1.71782 1.78912 1.86138 1.93465 2.00894 2.07624 2.15255 2.22998 2.30855 2.3883 2.39813 2.47925 2.56163 2.6453 2.73032 2.80109 2.88866 2.97769 3.06825 3.16037 3.25413 3.2625 3.35809 3.45544 3.5546 3.64393 3.74671 3.85152 3.95844 4.06755 4.11186 4.22421 4.33899 4.45631 4.57627 4.577 4.69975 4.82541 4.95412 5.08603 5.2213 5.3601 5.48608 5.63208 5.78221 5.93671 6.09584 6.12502 6.28999 6.46024 6.63614 6.81806 7.00644 7.06674 7.26432 7.46954 7.68301 7.90542 8.13757 8.38032 8.63471 8.6791 8.9486 9.23251 9.53247 9.85039 10.1886 10.2443 10.6094 11.0015 11.4249 11.885 11.9666 12.4785 13.0452 13.6797 14.4004 15.2345 16.2246 17.4426 19.0259 21.2922 25.3285 30 2.43864 2.44422 2.51501 2.62265 2.68814 3.20742 3.83646 2.58064 2.6592 2.78265 3.09074 4.04048 3.88995 3.96478 4.09026 4.62213 5.14485 3.02736 3.10709 3.23081 3.30837 4.54525 3.15744 3.23511 3.39598 4.18775 4.61251 4.70663 4.86462 5.54475 6.18874 3.42888 3.43062 3.5294 3.67795 3.76693 4.36946 5.42014 3.60356 3.69343 3.95814 4.57367 5.48143 5.57722 5.81009 6.61502 3.89115 3.96085 4.06979 4.1388 5.2005 4.01168 4.08581 4.20082 4.47123 5.4203 5.2626 5.34725 5.48085 5.82184 6.82378 4.46609 4.46931 4.54774 4.66686 4.73925 5.30391 6.01672 4.61278 4.688 4.8038 5.06706 6.06245 6.06877 6.14172 6.26465 6.83076 7.28399 4.94279 5.02073 5.1407 5.21501 6.03825 6.4461 5.07855 5.15597 5.28597 5.84918 6.37436 6.51689 6.62391 6.8504 7.91116 5.53009 5.53354 5.59694 5.69625 5.75938 6.71586 5.64906 5.73382 5.90827 6.77957 6.77316 6.85171 6.97724 7.32073 8.19158 6.14804 6.15399 6.22773 6.34141 6.41197 7.25654 7.56715 6.28662 6.36806 6.51122 7.56848 7.62536 7.70926 7.86161 8.89473 7.40321 7.48894 7.62701 7.71872 8.93376 7.54592 7.64762 7.80566 8.17977 9.47328 8.99344 9.07819 9.22587 10.3421 8.32897 8.33321 8.40971 8.52886 8.60396 9.7737 8.47931 8.58552 8.78792 10.0028 9.82802 9.90609 10.0468 11.0199 9.82646 9.92607 10.0828 10.1832 11.6756 9.98163 10.0785 10.2731 11.3004 11.7329 11.8113 11.9354 12.2588 13.1682 12.841 12.8449 12.9246 13.0502 13.1307 14.3187 12.9677 13.0394 13.1614 13.9458 14.1438 14.3825 14.4715 14.6198 15.1906 15.8905 17.118 17.2029 17.3382 17.4263 18.6655 17.2463 17.3235 17.4454 17.7573 18.6691 18.7192 18.7967 18.9371 19.893 1.54073 1.60987 1.67998 1.75108 1.7526 1.82474 1.89794 1.97221 2.00603 2.08194 2.15901 2.23728 2.3168 2.39759 2.42754 2.51015 2.59415 2.67957 2.71269 2.80017 2.88921 2.97985 3.07216 3.1662 3.20354 3.3001 3.39856 3.49898 3.60145 3.65387 3.75959 3.86758 3.97795 4.0908 4.20625 4.32441 4.4348 4.55854 4.6854 4.81556 4.90382 5.03984 5.17965 5.32347 5.47153 5.62027 5.7775 5.9398 6.10754 6.28107 6.46081 6.47234 6.6592 6.85328 7.05518 7.26553 7.36567 7.58975 7.82431 8.07037 8.2274 8.49459 8.77681 9.07585 9.39384 9.73335 10.066 10.456 10.879 11.341 11.8498 12.416 12.7423 13.4266 14.2191 15.1607 16.3207 17.832 20.0046 23.9203 30 2.40952 2.42406 2.50939 2.6377 2.71457 3.23515 4.13233 2.57577 2.64822 2.77912 3.67844 4.18554 4.26102 4.3922 5.39106 2.69791 2.69971 2.78505 2.91624 2.99732 3.84156 4.34808 2.84221 2.91925 3.05788 4.0204 4.40076 4.4737 4.59303 4.97729 5.66978 3.17406 3.18652 3.26973 3.39949 3.48144 4.74356 3.32526 3.40524 3.52859 3.81107 4.86185 4.79949 4.87641 5.00024 5.35454 6.17233 3.5058 3.59449 3.73173 3.81742 5.20246 3.65509 3.74125 3.89166 5.02347 5.26165 5.34351 5.4771 5.89849 6.69159 4.06943 4.14972 4.27271 4.34837 5.05637 5.63736 4.21384 4.29434 4.42097 4.73876 5.70688 5.70067 5.79162 5.95523 7.09202 4.60313 4.60809 4.68128 4.79486 4.86606 5.99436 4.74226 4.82939 4.97582 5.61963 6.19874 6.04622 6.11709 6.22952 6.52477 7.3414 5.54537 5.54646 5.60921 5.70579 5.76561 6.4267 6.75541 5.67215 5.76318 5.9483 6.89908 6.81234 6.89307 7.03325 8.10307 6.13519 6.20674 6.31613 6.38322 6.97877 7.53567 6.27187 6.35561 6.49669 7.14474 7.66703 7.59573 7.68249 7.84102 8.89883 7.06035 7.13977 7.2618 7.33718 8.1112 8.60597 7.1964 7.27433 7.42304 8.31266 8.66119 8.7352 8.84781 9.09206 10.1191 8.22833 8.22898 8.31049 8.43748 8.51758 9.76566 8.3618 8.45044 8.72005 9.30725 9.82616 9.91222 10.0629 11.1873 9.52028 9.58933 9.69378 9.75687 10.2185 10.898 9.65831 9.73957 9.87137 10.2685 11.0913 10.9557 11.0427 11.2263 12.0933 10.8956 10.9594 11.0561 11.1147 11.5563 12.1616 11.0196 11.0919 11.213 11.7108 12.2363 12.2145 12.2896 12.4201 13.414 14.5452 14.6172 14.7298 14.8011 15.9068 14.6755 14.7642 14.9207 16.0662 15.9633 16.0446 16.1916 17.1985 1.78239 1.8511 1.92076 1.99138 2.063 2.06401 2.13666 2.21035 2.28513 2.36102 2.43806 2.46989 2.5486 2.62855 2.70976 2.7923 2.84855 2.93338 3.01964 3.10738 3.19666 3.25659 3.34854 3.44219 3.53758 3.63479 3.73389 3.75161 3.85303 3.95651 4.06213 4.16998 4.18316 4.29363 4.40655 4.52202 4.64017 4.76112 4.81361 4.93879 5.06712 5.19877 5.3339 5.41288 5.55389 5.6989 5.84816 6.00192 6.10498 6.2668 6.43393 6.60672 6.64957 6.82995 7.01695 7.21106 7.41285 7.62296 7.82036 8.04833 8.28697 8.53733 8.80061 9.07822 9.32445 9.63301 9.96144 10.3125 10.6895 11.0966 11.2719 11.7305 12.2344 12.7937 13.4219 13.9206 14.7168 15.6607 16.8199 18.3224 20.4615 24.2157 30 2.65218 2.65793 2.74555 2.88406 2.97338 4.2649 2.78773 2.86119 2.98354 3.45539 4.03174 4.32208 4.40474 4.5561 5.56062 3.09733 3.10861 3.18819 3.31235 3.39082 4.59702 3.23855 3.32345 3.53234 4.23621 4.66544 4.75823 4.903 5.2522 6.41111 3.51414 3.51618 3.58167 3.68532 3.75229 4.71656 3.64302 3.75081 4.00242 4.95111 4.78405 4.87938 5.04323 6.32924 3.97689 4.04734 4.15695 4.22591 5.31417 4.10008 4.18221 4.34936 5.20616 5.37605 5.4705 5.67783 6.57219 4.56795 4.58005 4.67885 4.8363 4.93912 6.36345 4.71828 4.80036 4.96325 5.84958 6.42459 6.51076 6.65803 7.8321 7.8321 5.04903 5.05078 5.11569 5.21728 5.2818 6.26359 5.16436 5.24439 5.41359 6.20796 6.31219 6.38362 6.52118 7.32609 5.81194 5.89691 6.02894 6.11186 7.42367 5.95197 6.03419 6.18319 7.19888 7.48009 7.56066 7.70318 8.73807 6.53851 6.62148 6.74864 6.82688 7.56393 8.15405 6.68689 6.77105 6.91092 7.43568 8.11697 8.21112 8.29369 8.4452 9.44524 7.39885 7.47353 7.59029 7.6643 8.80173 7.5194 7.59082 7.71528 8.65611 8.85566 8.93342 9.07479 10.0305 8.11023 8.1914 8.31736 8.39631 9.65456 8.25027 8.33801 8.5028 9.52843 9.70658 9.77993 9.90546 10.9024 9.71456 9.72249 9.80277 9.92986 10.012 11.1896 9.85047 9.92885 10.0509 10.3428 11.33 11.2437 11.3173 11.4331 11.7239 12.6089 12.0382 12.0436 12.1193 12.2336 12.3026 12.802 13.5485 12.1878 12.2714 12.431 13.3863 13.6167 13.7069 13.8403 14.1025 15.4941 15.9468 15.9478 16.0357 16.1728 16.2591 17.6062 16.086 16.1594 16.2759 16.5832 17.4258 17.6604 17.7346 17.8529 18.1714 19.006 2.03895 2.11507 2.19225 2.20177 2.28016 2.35968 2.44034 2.50323 2.58601 2.67004 2.75535 2.84199 2.93 3.01942 3.07343 3.1652 3.25851 3.3534 3.39234 3.48956 3.5885 3.68923 3.79182 3.85678 3.96252 4.07031 4.18022 4.29234 4.40676 4.43413 4.55153 4.67146 4.79402 4.91934 5.01962 5.15018 5.28386 5.42082 5.56124 5.70528 5.77998 5.92986 6.08388 6.24228 6.40532 6.57326 6.63486 6.80997 6.99076 7.17761 7.37094 7.57121 7.58157 7.7897 8.0059 8.23082 8.4652 8.66215 8.91581 9.18156 9.46062 9.75439 10.0645 10.3929 10.5335 10.8916 11.2743 11.6853 12.1289 12.4325 12.9427 13.5044 14.1291 14.8328 15.1243 15.9765 16.9827 18.2115 19.7898 21.9996 25.714 30 2.83053 2.90207 3.01155 3.0788 3.69275 4.22678 2.97061 3.05709 3.19242 3.52342 4.58928 4.28307 4.36054 4.48552 4.84822 5.66102 3.17431 3.25315 3.37117 3.44141 3.89319 4.77863 3.32069 3.39143 3.51324 4.46425 4.83392 4.91211 5.04697 6.09545 3.81302 3.89062 4.00442 4.0703 4.42742 5.46128 3.98487 4.07204 4.20727 4.52504 5.64171 5.51186 5.58228 5.699 6.12398 6.71315 4.17577 4.26181 4.39514 4.47852 5.82013 4.32058 4.40551 4.5562 5.64206 5.87552 5.95402 6.09014 7.13284 4.69989 4.70552 4.77549 4.88522 4.9551 6.00612 4.82891 4.91435 5.07358 6.08387 6.05878 6.1334 6.26269 7.25505 5.38563 5.3868 5.47523 5.61366 5.70157 7.04015 5.53312 5.63292 5.87766 6.70827 7.09415 7.17368 7.32762 8.21699 6.06922 6.07118 6.14628 6.26089 6.33101 6.92915 7.54057 6.20503 6.2802 6.41592 7.34974 7.60371 7.69033 7.82904 8.21291 9.16315 6.99546 6.99704 7.07976 7.21136 7.29707 8.50108 7.12988 7.22469 7.42546 8.36455 8.55346 8.62994 8.7741 9.66307 8.04823 8.11399 8.21493 8.27721 8.89811 9.32982 8.18159 8.27553 8.45216 9.54813 9.38178 9.45218 9.56187 9.82467 10.7098 9.30998 9.3131 9.39588 9.52407 9.6042 10.8887 9.46296 9.55672 9.71138 10.2468 11.0743 10.9455 11.0217 11.1381 11.394 12.4376 10.8199 10.9004 11.022 11.0952 11.6101 12.4367 10.9702 11.0492 11.1816 11.7429 12.2942 12.504 12.595 12.7359 13.0646 14.2387 13.8071 13.8822 14.0016 14.0792 15.1809 13.9331 14.015 14.1365 14.3771 15.63 15.2255 15.291 15.4168 16.1564 17.8308 17.8967 17.9983 18.0613 18.7716 19.1045 17.9618 18.0504 18.2005 18.9801 19.4273 19.1535 19.2257 19.3654 20.1725 2.28921 2.35857 2.42889 2.47626 2.54826 2.62129 2.6954 2.77061 2.84696 2.8688 2.94666 3.02574 3.10608 3.18052 3.26338 3.34762 3.43329 3.52044 3.60353 3.6937 3.78551 3.87901 3.97428 4.07139 4.14836 4.2489 4.35149 4.45621 4.56314 4.60107 4.71115 4.82368 4.93878 5.05656 5.0758 5.19687 5.3209 5.44806 5.47803 5.60926 5.744 5.88243 6.02476 6.17122 6.24183 6.39482 6.5526 6.71546 6.88376 7.05786 7.07053 7.25131 7.43881 7.63353 7.83607 7.91827 8.13282 8.35688 8.59135 8.81004 9.0671 9.33796 9.62417 9.92759 10.2504 10.5714 10.9397 11.3371 11.7685 12.2401 12.3454 12.8773 13.4719 14.1459 14.9241 15.8444 16.9706 18.4226 20.4686 23.9649 30 3.30316 3.31522 3.39411 3.51499 3.58939 4.29218 4.83898 3.45821 3.54524 3.71124 4.70556 4.902 4.9875 5.12104 5.44473 6.50757 3.76249 3.77318 3.8514 3.97462 4.05364 5.21218 3.90536 3.98739 4.10959 4.35513 5.59036 5.28338 5.38706 5.5809 6.80106 4.13163 4.1334 4.20586 4.3148 4.38005 4.82121 5.59276 4.28042 4.36882 4.53275 5.58623 5.64861 5.72594 5.85239 6.25812 6.99489 4.64398 4.64783 4.72545 4.8447 4.91838 5.67619 6.14598 4.78715 4.87077 5.0203 6.07569 6.19936 6.28173 6.47089 7.20975 5.3079 5.37713 5.48292 5.54775 6.11595 6.66177 5.43761 5.51756 5.66606 6.61648 6.71312 6.78293 6.89247 7.16392 8.01357 5.89475 5.896 5.98579 6.12115 6.20252 6.7708 7.6957 6.05623 6.13227 6.25529 6.61932 7.40254 7.75644 7.84027 7.97644 8.39079 9.23164 6.4951 6.5691 6.68256 6.75243 7.4209 7.93339 6.62023 6.68422 6.78543 7.04681 7.79586 7.99033 8.07413 8.23611 9.17539 7.03668 7.04034 7.12438 7.25401 7.33452 8.32883 8.65196 7.18409 7.26822 7.42377 8.43099 8.70573 8.77944 8.89723 9.21931 10.037 8.08714 8.16797 8.29126 8.36663 9.00351 9.67662 8.23934 8.32779 8.47113 8.90015 9.80139 9.7229 9.78923 9.90777 10.7457 9.30443 9.37217 9.47976 9.54966 10.5447 9.4169 9.49634 9.64556 10.5741 10.5989 10.6737 10.7959 11.1821 11.9059 10.6852 10.6884 10.759 10.8726 10.9479 11.9472 10.8101 10.9113 11.1425 12.0555 12.0011 12.0771 12.2066 13.1531 13.2443 12.3317 12.3344 12.4142 12.5412 12.6241 13.78 12.4567 12.5346 12.6688 13.7186 13.8408 13.9266 14.0743 15.2299 16.7666 16.7684 16.8435 16.9677 17.0539 18.0524 16.8801 16.9629 17.0917 17.3986 18.445 18.118 18.209 18.3588 18.8693 19.6857 2.54382 2.60249 2.66192 2.72213 2.77076 2.83242 2.89493 2.9583 3.02256 3.07661 3.14257 3.20948 3.27739 3.30942 3.37883 3.44931 3.5209 3.59361 3.6675 3.73412 3.81033 3.88783 3.96666 4.04687 4.12851 4.17033 4.25422 4.33967 4.42675 4.51551 4.60602 4.69836 4.70611 4.80051 4.8969 4.99535 5.09597 5.19884 5.21925 5.32496 5.43317 5.54399 5.65756 5.77402 5.82793 5.94886 6.07306 6.20072 6.33204 6.46724 6.47964 6.61932 6.7634 6.91215 7.0659 7.22498 7.26343 7.42965 7.60212 7.78133 7.96784 8.16226 8.3653 8.37213 8.58491 8.80804 9.04259 9.2898 9.55111 9.59558 9.87547 10.1736 10.4924 10.8351 11.2055 11.5522 11.9884 12.4705 13.0094 13.6202 14.3251 14.747 15.6694 16.8253 18.3749 20.7334 25.8558 30 3.17389 3.25105 3.37113 3.44672 4.63505 3.30263 3.37936 3.51242 4.5316 4.68535 4.75641 4.8786 5.83631 3.50021 3.50414 3.57149 3.67346 3.7351 4.1902 4.84129 3.6462 3.73657 3.88503 4.37975 5.20905 4.90556 4.99675 5.15538 6.36044 3.75799 3.76572 3.84129 3.95851 4.03196 5.19615 3.894 3.96627 4.07671 4.32038 5.30593 5.2523 5.33144 5.4667 6.54488 6.54488 4.22253 4.2231 4.29696 4.4147 4.49163 5.56198 4.34419 4.42496 4.55256 4.87979 5.83154 5.61987 5.70068 5.83554 6.3681 6.98478 4.70802 4.71224 4.78998 4.90717 4.97759 5.46838 6.26861 4.85531 4.93892 5.17555 5.77224 6.32795 6.41366 6.57018 7.61592 5.30753 5.31235 5.39055 5.5073 5.57655 6.01086 6.9073 5.46761 5.55072 5.69745 6.76853 6.96186 7.04677 7.24933 7.97825 5.89987 5.9947 6.13907 6.22707 6.94066 7.76886 6.05888 6.13169 6.24219 6.4795 7.50041 7.83598 7.93758 8.15357 9.15499 6.59581 6.68184 6.81751 6.90464 8.18661 6.72617 6.80308 6.94208 7.89643 8.23974 8.31176 8.42406 8.69407 9.59641 7.36389 7.36974 7.4524 7.58177 7.66389 8.91256 7.50061 7.58176 7.75533 8.54908 8.98688 9.09313 9.28168 10.6392 8.29994 8.36768 8.47316 8.53963 9.58859 8.42048 8.49586 8.61489 8.91921 9.81007 9.65085 9.74005 9.89933 11.0277 9.73089 9.79682 9.89984 9.96509 10.9695 9.84777 9.92246 10.041 10.3534 11.2116 11.024 11.0985 11.2169 11.531 12.3816 11.461 11.4617 11.5491 11.6872 11.776 13.0734 11.5997 11.684 11.825 12.4026 13.0182 13.1235 13.1948 13.3204 14.2447 14.7589 14.8267 14.9379 15.0141 15.9345 14.8674 14.9506 15.0843 15.46 16.3601 15.9919 16.0715 16.2021 16.6365 17.3683 2.81745 2.87594 2.93521 2.99526 3.05611 3.07355 3.13547 3.19826 3.26192 3.32649 3.392 3.41369 3.48048 3.54826 3.61708 3.68696 3.75794 3.82907 3.90233 3.97679 4.05249 4.12948 4.16161 4.24049 4.32078 4.40251 4.46949 4.55397 4.64006 4.72781 4.8173 4.88672 4.97944 5.07409 5.17077 5.26955 5.3212 5.42336 5.52787 5.63485 5.69594 5.80702 5.92088 6.03769 6.15758 6.28074 6.3221 6.44988 6.58136 6.71678 6.85636 7.00039 7.11252 7.26506 7.42293 7.58649 7.75618 7.93247 8.11591 8.30686 8.50645 8.71525 8.93413 9.16413 9.22813 9.47397 9.73393 10.0097 10.3034 10.6174 10.9549 11.0659 11.44 11.8477 12.2958 12.6939 13.2398 13.8605 14.5801 15.4359 16.4921 17.8717 19.8653 23.5113 30 3.69872 3.70393 3.77063 3.874 3.93868 4.96982 3.82703 3.90443 4.02556 4.32185 5.27579 5.02208 5.10032 5.26026 6.07171 4.09721 4.1104 4.19148 4.31241 4.38404 4.82885 5.76105 4.26822 4.34516 4.46585 4.76438 5.70252 5.81523 5.88947 6.00809 6.33181 7.15703 4.57485 4.65182 4.77039 4.84391 5.68966 6.05799 4.7249 4.82661 5.00842 6.2927 6.11283 6.19 6.32136 7.14325 7.38015 4.98249 5.08298 5.2407 5.34127 6.85403 5.13007 5.20464 5.31996 5.58744 6.55489 6.91495 6.99915 7.13639 7.5648 8.38883 5.33753 5.3392 5.426 5.56285 5.65072 6.94175 5.46943 5.54508 5.68205 6.61797 7.00158 7.08793 7.24522 8.30282 5.82559 5.83103 5.89817 6.00249 6.06801 7.09934 5.95229 6.03063 6.16368 6.91466 7.24317 7.15086 7.22367 7.34907 8.32798 6.36084 6.36408 6.4316 6.53722 6.60421 7.62635 6.48763 6.58132 6.80458 7.60997 7.68546 7.7714 7.93138 8.94942 6.82723 6.89421 6.99702 7.06042 7.68674 8.13127 6.95422 7.0303 7.1467 7.40476 8.43724 8.17998 8.24297 8.33225 8.48709 9.62384 7.65224 7.73753 7.87476 7.96575 9.18088 7.77258 7.84294 7.94913 8.17246 9.18082 9.23952 9.32565 9.49111 10.4651 8.72904 8.73205 8.8059 8.91921 8.98905 9.67164 10.1621 8.86616 8.94703 9.09201 10.1084 10.2145 10.2858 10.3983 10.6834 11.533 10.5259 10.6023 10.7202 10.7936 11.7446 11.9931 10.6865 10.8075 11.0345 12.4509 12.0463 12.1177 12.2258 12.4574 13.4601 12.1213 12.1271 12.2057 12.3271 12.4025 13.349 13.6327 12.2645 12.3509 12.5314 13.4008 13.6816 13.7507 13.8695 14.7988 16.5332 16.6064 16.721 16.7937 17.9155 16.6562 16.7315 16.8538 17.2269 17.9808 17.9749 18.0554 18.1807 18.4806 19.4944 3.10574 3.16949 3.23403 3.29937 3.32283 3.38932 3.45666 3.52489 3.59403 3.6641 3.73513 3.73742 3.80947 3.88253 3.95663 4.0318 4.10807 4.1402 4.2181 4.29718 4.37749 4.45905 4.54192 4.62033 4.70583 4.79276 4.88117 4.97112 5.06224 5.1554 5.25027 5.34689 5.44535 5.4604 5.56106 5.6637 5.76841 5.87528 5.95017 6.06088 6.174 6.28964 6.40791 6.52894 6.53033 6.65428 6.78126 6.91142 7.04492 7.18195 7.28452 7.42811 7.57578 7.72776 7.88433 8.02316 8.18903 8.36038 8.53758 8.71891 8.909 9.10631 9.31141 9.52495 9.74763 9.98029 10.2239 10.2303 10.4862 10.7553 11.0392 11.3394 11.3531 11.6727 12.0132 12.3776 12.7695 12.8125 13.24 13.7059 14.2178 14.7857 15.4233 16.1504 16.996 18.0064 19.2621 20.9215 23.3742 28.1786 30 4.28812 4.36709 4.48611 4.55763 5.05533 5.87828 4.43863 4.52059 4.66191 5.7616 5.9384 6.02777 6.20605 7.164 4.7801 4.84437 4.94146 4.99998 5.41911 6.0649 4.91845 5.01136 5.18345 6.29269 6.12264 6.19934 6.31385 6.54588 7.69012 5.27482 5.35298 5.47075 5.54149 6.03235 6.85207 5.41933 5.49294 5.61546 6.08321 6.66747 6.91696 7.01764 7.25446 8.13288 5.87831 5.95777 6.07978 6.15507 6.9089 7.42082 6.02114 6.10924 6.28244 7.24646 7.47816 7.55838 7.69305 8.27248 8.82184 6.43862 6.51388 6.6317 6.70655 7.84918 6.5673 6.65222 6.81005 7.81852 7.90824 7.99078 8.12888 8.69413 9.29713 6.95705 7.03431 7.15384 7.22844 8.43828 8.43828 7.10247 7.20357 7.40448 8.49416 8.4962 8.57682 8.71045 9.19648 9.87185 7.61044 7.62287 7.69138 7.7995 7.86903 8.87696 7.74356 7.83013 7.98963 9.03151 8.92199 8.98154 9.0697 9.24329 10.1607 8.42449 8.49697 8.60973 8.68067 9.79574 8.54753 8.6219 8.74877 9.66639 9.76535 9.84832 9.92195 10.0458 10.597 11.0781 9.5505 9.55765 9.65104 9.79571 9.88615 11.3321 9.71175 9.79602 9.93186 10.3242 11.2123 11.3944 11.4809 11.6234 12.1115 12.8834 10.6998 10.7655 10.8657 10.9268 11.4299 11.9985 10.8258 10.9029 11.0401 12.021 12.0592 12.1431 12.2795 12.7002 13.531 11.9269 12.0109 12.1478 12.2405 13.4014 12.0454 12.1288 12.2883 13.2357 13.4555 13.5325 13.6685 14.6636 15.1529 15.229 15.3486 15.425 16.5694 15.276 15.3536 15.4943 16.4487 16.6218 16.6955 16.8204 17.5026 17.8372 18.7117 18.7117 18.7785 18.881 18.9442 19.5712 20.0055 18.8482 18.9406 19.0937 19.6539 20.4233 20.0588 20.1297 20.2362 20.456 21.4923 3.39534 3.45567 3.51681 3.57877 3.64158 3.6557 3.71957 3.78435 3.85006 3.91672 3.96349 4.03183 4.1012 4.17163 4.24317 4.31583 4.38928 4.46431 4.54058 4.61815 4.69705 4.77733 4.79282 4.87481 4.95828 5.0433 5.12992 5.19133 5.28082 5.37208 5.4652 5.56024 5.65729 5.75644 5.7696 5.87123 5.97516 6.08149 6.19035 6.25431 6.36739 6.48333 6.60226 6.72436 6.82811 6.95645 7.08848 7.22441 7.36449 7.50898 7.5314 7.68132 7.8363 7.9967 8.16289 8.33533 8.46397 8.64833 8.8404 9.04085 9.25046 9.47008 9.54253 9.77695 10.024 10.2851 10.3788 10.6615 10.9628 11.2852 11.6319 12.007 12.4155 12.5524 13.015 13.5295 14.109 14.6604 15.4156 16.32 17.4471 18.9441 21.1793 25.7067 30 4.15279 4.23236 4.35587 4.43333 5.66358 4.2841 4.36179 4.50807 5.41291 5.73037 5.82138 5.96486 6.32915 7.41164 4.49027 4.50094 4.58086 4.70749 4.78945 5.95656 4.62055 4.69104 4.8103 5.40993 5.78839 6.01838 6.11261 6.31851 7.21608 4.9611 4.96202 5.03448 5.14989 5.22518 6.27719 5.07394 5.14968 5.30131 6.10936 6.33129 6.40372 6.51372 6.75045 7.76373 5.41746 5.42525 5.50134 5.61822 5.69038 6.42366 6.89183 5.56903 5.66079 5.82337 6.99896 6.94549 7.02145 7.15273 8.16757 5.86738 5.94007 6.05488 6.1288 7.20876 5.99625 6.08561 6.23198 6.7076 7.54845 7.26656 7.34879 7.49279 8.56675 6.54737 6.63335 6.76796 6.85347 8.15695 6.67761 6.74356 6.84066 7.0285 8.06534 8.21435 8.2972 8.44825 9.46205 7.10985 7.11257 7.18398 7.29307 7.35989 7.94143 8.50679 7.23979 7.3121 7.44428 8.32532 8.55923 8.62962 8.73704 8.97272 9.93812 7.80565 7.81262 7.8911 8.01344 8.09066 9.2858 7.93872 8.01439 8.16433 8.98313 9.35088 9.43943 9.57864 9.92705 10.9948 8.68696 8.68732 8.7722 8.90526 8.98996 10.2708 8.82538 8.90978 9.05652 10.1727 10.3415 10.4367 10.583 10.9132 12.182 9.90137 9.90261 9.98263 10.113 10.2012 11.3029 10.0164 10.0956 10.2393 11.215 11.3606 11.445 11.6042 12.5819 11.4217 11.4944 11.6084 11.6809 12.78 11.5452 11.6248 11.7628 12.8186 12.8509 12.9485 13.1063 13.5722 14.5802 12.7505 12.8504 13.0056 13.1031 14.645 12.9125 13.0074 13.1909 14.2527 14.7121 14.8074 14.9734 16.2298 17.195 17.2654 17.3736 17.4404 18.1209 18.5582 17.331 17.4268 17.641 18.5273 18.6057 18.6735 18.7937 19.6621 3.70035 3.76214 3.82485 3.88851 3.93873 4.00415 4.07059 4.1381 4.2067 4.27644 4.28841 4.35953 4.43186 4.50546 4.5146 4.58967 4.6661 4.74395 4.82325 4.87232 4.9541 5.0375 5.12258 5.20942 5.29808 5.38865 5.42846 5.5219 5.61746 5.71523 5.81533 5.90143 6.0061 6.11344 6.22358 6.33668 6.41256 6.53092 6.65269 6.77809 6.90732 7.03164 7.16902 7.31103 7.45799 7.61025 7.66504 7.82512 7.99151 8.16474 8.28395 8.4699 8.66444 8.86838 9.08269 9.30848 9.53725 9.78953 10.0579 10.3445 10.6519 10.8233 11.1694 11.5464 11.9604 12.0522 12.522 13.0509 13.6557 14.3621 15.2111 15.3994 16.5193 18.0486 20.4723 26.7967 30 4.28224 4.28998 4.36768 4.48856 4.56462 5.75327 4.4188 4.49385 4.62034 5.20562 5.66861 5.81351 5.90096 6.06309 7.10579 4.65105 4.72133 4.83028 4.89849 5.99145 4.78273 4.87355 5.04499 6.09862 6.05339 6.14741 6.34957 7.26324 4.89681 4.97002 5.08992 5.17177 6.1712 5.01398 5.10014 5.22866 5.48796 6.7794