<?xml version="1.0"?><VTKFile type="PolyData" version="0.1" byte_order="LittleEndian">
<PolyData>
<Piece NumberOfLines="1937" NumberOfPoints="1938">
<CellData Scalars=" CellData">
<DataArray type="Float32" Name="time" NumberOfComponents="1" format="ascii" >
0.0501286 0.100516 0.151166 0.20208 0.253261 0.304712 0.356437 0.408437 0.460716 0.513276 0.566122 0.619256 0.67268 0.7264 0.780416 0.834734 0.889356 0.944286 0.999527 1.05508 1.11096 1.16715 1.22367 1.28053 1.33771 1.39523 1.4531 1.51131 1.56986 1.62878 1.68805 1.74768 1.80768 1.86805 1.9288 1.98993 2.05144 2.11335 2.17565 2.23835 2.30146 2.36498 2.42891 2.49327 2.55805 2.62327 2.68893 2.75503 2.82158 2.88859 2.95607 3.02401 3.09243 3.16134 3.23073 3.30062 3.37102 3.44193 3.51336 3.58532 3.65781 3.73084 3.80443 3.87857 3.95328 4.02857 4.10445 4.18092 4.258 4.33569 4.414 4.49295 4.57254 4.65279 4.7337 4.81529 4.89757 4.98055 5.06424 5.14866 5.23381 5.31971 5.40638 5.49383 5.58206 5.6711 5.76097 5.85166 5.94321 6.03563 6.12893 6.22314 6.31826 6.41432 6.51134 6.60933 6.70831 6.80831 6.90935 7.01145 7.11462 7.2189 7.32431 7.43087 7.5386 7.64754 7.75771 7.86914 7.98186 8.0959 8.21128 8.32805 8.44623 8.56587 8.68699 8.80963 8.93383 9.05964 9.1871 9.31624 9.44711 9.57977 9.71425 9.85062 9.98892 10.1292 10.2715 10.416 10.5626 10.7115 10.8626 11.0162 11.1722 11.3307 11.4919 11.6558 11.8224 11.992 12.1646 12.3402 12.5192 12.7014 12.8871 13.0764 13.2695 13.4665 13.6675 13.8728 14.0825 14.2968 14.5159 14.74 14.9695 15 0.977966 1.35358 1.94199 2.84388 3.6814 4.59647 5.81362 7.48037 10.2114 15 1.78597 2.10395 3.33495 3.47046 4.57178 2.21467 2.48433 3.83304 3.4724 5.131 2.91044 3.20572 4.27829 4.41076 5.82158 4.05353 4.36323 5.81928 5.64319 6.86755 5.14382 5.42759 6.80485 6.83035 8.15448 6.39836 6.6591 7.87419 7.88108 9.04873 8.29156 8.63116 10.2095 9.78791 11.7145 11.475 11.745 12.8994 12.8567 14.5268 1.02064 1.29321 1.58097 1.80137 2.2017 2.58312 3.00123 3.38339 3.726 4.03701 4.39299 4.7484 5.16778 5.75032 6.23527 6.7817 7.01634 7.42632 7.96449 8.37036 9.06031 9.59054 9.99889 10.571 11.2454 11.9596 12.6931 13.0869 13.7335 14.4073 14.8977 15 1.38959 1.64487 2.65929 2.83414 3.95038 1.67931 1.93029 3.12127 3.34346 4.56256 1.96506 2.24523 3.50267 3.57135 4.75189 2.19913 2.45413 3.50024 3.65244 4.74409 2.60695 2.87715 4.12003 4.05847 5.36105 3.00305 3.33181 4.61464 4.61325 6.43152 3.4271 3.69835 4.77248 4.95419 5.99118 3.82572 4.11495 5.4658 5.5717 6.86024 4.17384 4.47494 5.67903 5.62347 6.93494 4.48163 4.71263 5.77715 5.98169 7.24728 4.86989 5.1977 6.49626 6.03639 7.94617 5.21868 5.45935 6.65727 6.75868 7.90067 5.64475 5.86333 6.96531 6.99178 8.50298 6.24076 6.48732 7.62644 7.67447 9.13302 6.75558 7.01692 8.20976 8.50613 9.62538 7.30696 7.5812 8.71324 8.7022 10.3347 7.5574 7.80635 9.02952 8.84887 10.4401 7.97303 8.2267 9.39983 9.33639 10.8281 8.53811 8.81125 10.0429 10.72 11.3774 8.9484 9.19184 10.301 10.0149 11.8578 9.66151 9.92168 11.0971 11.2938 12.6583 10.2253 10.5259 11.7928 11.5294 13.2725 10.6263 10.8844 11.9542 12.1236 13.3298 11.2448 11.5194 12.7396 12.6078 14.045 11.9562 12.258 13.5675 13.4295 14.8941 12.6744 12.8832 13.7955 14.0728 15 13.4407 13.7073 14.8982 14.9325 15 13.8571 14.1309 15 15 14.5404 14.8343 15 15 1.32683 1.64986 2.09295 2.4028 2.78385 3.30387 3.63611 4.01835 4.41968 4.85645 5.20255 5.89698 6.5582 7.29224 8.05292 8.9005 9.58608 10.4223 11.0444 12.0055 12.9463 13.8578 14.9684 15 2.04902 2.31971 3.43745 3.52476 4.96437 2.39025 2.64611 3.63234 3.92638 5.18134 2.87094 3.11848 4.26977 4.3873 5.45428 3.19996 3.48273 4.75801 4.74478 6.24824 3.60804 3.89789 5.17651 5.49099 6.99518 4.17094 4.44595 5.68113 5.45128 7.36772 4.5283 4.79808 6.01487 5.86438 7.53744 4.94597 5.27066 6.68565 6.90567 8.10633 5.38554 5.68132 7.0415 6.84882 8.40952 5.84973 6.1251 7.35304 7.08378 8.7327 6.23879 6.5531 7.83919 8.07486 9.07511 7.00071 7.33907 8.73486 8.29235 10.369 7.71294 7.96483 9.03905 9.92456 10.1702 8.51895 8.77637 9.99606 9.85277 11.0584 9.3688 9.62691 10.8727 10.6782 12.186 10.3312 10.6031 11.7317 11.9958 13.2223 11.1021 11.3734 12.466 12.6669 13.878 12.0689 12.3455 13.6004 13.4167 14.7523 12.8079 13.1834 14.6445 14.5185 15 13.9162 14.1913 15 15 15 1.56931 2.03216 2.67397 7.38883 13.7608 3.05779 3.3503 4.64053 4.41506 6.3398 4.27812 4.51707 5.64708 5.95879 7.09801 13.8378 14.193 15 15 1.82052 2.09064 2.42521 2.76092 3.26613 3.86318 4.34811 4.76506 5.35463 5.92379 6.59457 7.26324 8.24795 9.07811 10.1722 11.1444 13.569 15 2.44345 2.72576 3.98505 3.85089 5.34601 2.75376 3.04288 4.42177 4.53125 5.93876 3.11538 3.3618 4.5388 4.59465 6.12604 3.48471 3.73726 4.94035 4.96884 6.4211 4.04397 4.28095 5.32302 5.40129 6.53123 4.72078 4.97536 6.06272 6.40675 7.37953 5.27843 5.51276 6.51159 6.5272 8.11337 5.77659 6.1049 7.58849 7.49803 9.07798 6.46903 6.78201 8.15423 8.02382 9.44821 7.14333 7.43724 8.77034 8.84132 10.129 7.97059 8.28395 9.70674 9.38466 11.28 8.80938 9.0913 10.4087 10.3731 11.9108 10.0795 10.3439 11.568 11.5045 12.8596 11.2027 11.4263 12.444 12.9645 13.5633 12.8243 13.0739 14.2928 14.333 15 14.379 14.6279 15 15 1.98444 2.54031 3.05275 3.66131 4.04271 4.95123 6.1229 7.39558 15 2.70873 2.94505 3.94949 3.89599 5.36536 3.44847 3.82215 5.18287 5.27105 6.83789 4.10691 4.40507 5.69771 5.40361 6.80507 4.96391 5.23475 6.44053 6.60306 8.03592 5.53984 5.79778 7.00128 6.8505 8.50625 7.09748 7.40137 8.80396 8.64292 10.2558 9.8562 10.1369 11.3413 11.2498 12.449 3.0053 8.83064 2.52388 2.91065 3.47877 3.95407 4.81668 5.81134 12.3827 15 3.50494 3.79201 4.95879 5.33953 6.37104 4.06411 4.36338 5.56812 5.47596 7.27889 4.97399 5.23329 6.49038 6.56253 7.65847 5.86035 6.18895 7.6932 7.67145 8.96133 7.9785 8.25367 9.61935 9.57597 11.2007 2.71647 3.04656 3.40951 3.58527 3.99662 4.53249 4.9327 5.46949 5.97059 6.69127 7.43653 8.28521 9.10174 9.99438 10.935 11.826 12.8221 13.9857 15 3.51705 3.81352 5.04509 4.79564 6.31345 3.88826 4.15603 5.28982 5.58271 6.73766 4.29689 4.57541 5.83103 5.86553 7.44602 4.47525 4.72277 5.74549 6.1118 7.44483 4.93035 5.17801 6.36036 6.70972 7.72959 5.53801 5.79292 6.85505 6.97219 8.16118 6.00596 6.35057 7.69301 7.45714 9.32707 6.61069 6.88128 8.00659 8.01715 9.18887 7.19329 7.47407 8.68545 8.87787 10.2717 8.04328 8.3469 9.67899 9.53102 10.9213 8.93009 9.23995 10.4936 10.4599 11.9815 9.94747 10.1995 11.2851 11.4737 12.6825 10.9783 11.2506 12.4986 12.8331 13.5535 12.1129 12.4031 13.6828 13.5151 15 13.3665 13.6348 14.6723 14.5174 15 14.6185 14.9383 15 15 4.03568 7.76015 3.33647 3.82738 4.2971 4.72777 5.33917 5.7157 6.33766 6.7889 7.2224 7.80003 8.37236 9.04213 10.4217 11.1504 12.3038 13.7342 15 4.13696 4.37083 5.48101 5.54249 6.86947 4.68599 4.94644 5.95529 5.96845 7.14528 5.20956 5.45009 6.56751 6.5538 7.69709 5.71869 6.02013 7.33646 7.13728 8.76112 6.40598 6.67243 7.85842 7.79415 9.09773 6.84419 7.146 8.35779 8.37982 9.65849 7.56653 7.82916 8.9982 8.93425 10.0311 8.09031 8.36125 9.54572 9.29442 10.9689 8.61572 8.92203 10.054 9.74702 11.7069 9.32726 9.65906 10.8851 10.7305 12.3653 10.0155 10.2812 11.4201 11.1102 12.6948 10.8677 11.1187 12.2021 12.1864 13.6635 12.6625 12.8844 13.8237 14.3986 15 13.6911 13.9526 15 15 3.65695 3.88786 4.37017 4.85004 5.32812 5.84922 6.25465 6.86368 7.26379 7.87287 8.93427 9.68421 10.5045 11.4185 12.6409 14.172 15 4.53028 4.77924 5.97299 5.93711 7.26595 4.78395 5.01782 6.09342 6.12898 7.30114 5.33143 5.58902 6.78685 7.06612 8.132 5.87999 6.12554 7.30032 7.91197 8.55743 6.43121 6.68934 7.90167 7.94029 9.30991 7.02687 7.26198 8.48112 8.40127 9.88757 7.51435 7.82232 9.09591 8.86283 10.4437 8.21676 8.45089 9.39929 9.73064 10.9534 8.69758 8.98718 10.2975 10.0591 11.4573 9.43521 9.69324 10.8525 10.8538 12.2715 10.7694 11.0597 12.4087 12.1762 13.5189 11.745 12.0264 13.2779 13.3364 14.7196 12.8211 13.0641 14.2882 14.5884 15 14.0961 14.3565 15 15 3.77334 4.20413 4.66609 4.96326 5.3146 5.90422 6.73582 7.55735 8.71533 9.8375 11.9295 15 4.33352 4.64134 5.99201 5.66267 7.31816 4.81449 5.07673 6.30923 6.33486 7.62617 5.35912 5.66091 7.03527 7.09846 8.3418 5.71543 5.97746 7.01457 7.13172 8.16043 6.13284 6.38633 7.44402 7.66469 9.04232 6.87413 7.17679 8.24096 8.17277 9.38703 7.95606 8.26374 9.61049 9.21066 10.7088 9.11296 9.39252 10.8157 10.577 12.1695 10.9618 11.1957 12.3785 12.2476 13.5225 13.2572 13.5651 14.8197 15 15 5.81718 8.20801 4.32279 4.5528 4.92596 5.21224 5.5145 5.79861 6.21101 6.55966 6.93758 7.26265 7.62817 8.04665 8.75573 9.44749 9.86701 10.4519 11.3271 12.0882 12.9538 13.9685 15 4.96986 5.23211 6.44573 6.4842 7.68581 5.22456 5.5256 6.79767 6.42704 8.2838 5.60702 5.85205 6.92401 7.15813 8.17506 5.92019 6.1873 7.4084 7.37933 8.87801 6.24749 6.51142 7.65219 7.76736 8.87932 6.54978 6.7695 7.82953 7.78014 8.8832 7.02086 7.33213 8.62725 8.35772 9.9391 7.39008 7.65095 8.8804 8.80521 10.5689 7.80404 8.08465 9.34247 9.4661 10.6282 8.14376 8.38304 9.55927 9.61677 10.784 8.57891 8.87825 10.2254 9.92091 11.8882 9.01795 9.25383 10.3184 10.777 11.5126 9.82032 10.0932 11.319 11.3003 12.5617 10.6075 10.898 12.3619 12.1753 13.6346 11.091 11.3543 12.6401 12.894 14.0538 11.7659 12.028 13.1795 13.0661 14.5772 12.7765 13.0135 14.0306 14.1178 15 13.6694 13.8802 14.8056 15 15 14.7223 14.9812 15 15 4.56034 4.79479 5.13959 5.36631 5.64792 6.06742 6.43353 6.87302 7.36655 7.83895 8.68897 9.45531 10.2595 11.3767 12.4807 14.5805 15 5.31494 5.56032 6.72839 6.8521 8.20956 5.59694 5.84441 6.9941 7.3577 8.42781 6.00006 6.28977 7.61622 7.47099 9.03715 6.26094 6.50945 7.56549 8.22875 9.2554 6.59292 6.88681 8.10469 7.99042 9.85107 7.10024 7.35614 8.43955 8.82929 9.76316 7.56151 7.84312 9.05095 9.20366 10.3261 8.11408 8.38044 9.68021 9.34738 10.9727 8.75292 9.06014 10.4181 10.48 11.8625 9.3777 9.70229 10.9043 10.7013 12.1138 10.5397 10.7745 11.8449 12.0867 13.3958 11.6921 11.9663 13.1531 13.057 14.5928 13.0227 13.3367 14.7767 14.3265 15 5.06293 5.26787 5.54776 5.83415 6.20685 6.60753 7.00524 7.40536 7.79138 8.33065 8.85628 9.43176 9.96051 10.4995 11.2205 12.1238 13.0016 14.0244 14.7298 15 5.41746 5.6778 6.73732 6.77074 7.9876 5.6482 5.94702 7.23243 7.42616 8.46586 5.91019 6.13963 7.22032 7.42808 8.77721 6.21572 6.4802 7.7399 7.73672 9.43967 6.60478 6.84269 8.00409 8.08709 9.20326 7.02018 7.30632 8.45343 8.3593 9.78555 7.41717 7.6516 8.67261 8.93672 9.96902 7.84276 8.08592 9.19589 9.4194 10.52 8.24757 8.5374 9.80386 9.60315 11.0306 8.81132 9.07966 10.1644 10.1408 11.5395 9.35024 9.62091 10.7435 10.9042 12.1421 9.98761 10.324 12.0062 11.5255 13.3713 10.5084 10.7472 11.8188 11.8839 13.3041 11.0933 11.3423 12.4662 12.3528 14.1934 11.8565 12.1451 13.4656 13.2126 14.7016 12.8161 13.1287 14.6254 14.159 15 13.7498 14.014 15 15 14.8421 15 15 6.72882 10.6889 5.72904 6.12471 6.48675 6.85258 7.242 7.6133 8.13436 8.3751 8.86742 9.30113 9.82121 10.465 11.1152 11.648 12.1755 13.3735 14.0826 15 6.13093 6.40228 7.59372 7.66665 9.04765 6.54591 6.80259 8.01375 8.26944 9.22511 6.91525 7.12336 8.08262 8.3631 9.46961 7.31525 7.59784 8.91973 8.86959 10.2832 7.71979 7.95467 8.96879 9.21271 10.2692 8.11136 8.37455 9.4049 9.46949 10.8435 8.66409 8.92859 10.2065 9.9756 11.4795 8.91946 9.16161 10.322 10.4974 11.6858 9.42022 9.616 10.5209 10.9145 12.2061 9.89528 10.1609 11.3413 11.1707 12.6939 10.4481 10.7034 11.7969 11.9877 13.0682 11.1429 11.3969 12.5291 12.6175 13.6878 11.8436 12.1129 13.1972 13.3664 14.4908 12.4313 12.6886 13.8091 14.2312 15 12.9941 13.2179 14.2048 14.7895 15 14.3176 14.5571 15 15 6.05642 6.42794 6.69288 7.12058 7.46497 7.91801 8.42649 9.00612 9.37253 9.9017 10.5319 11.0433 11.6335 12.4177 13.0374 13.6738 14.5851 15 6.86575 7.16679 8.41177 8.2404 9.72863 7.26889 7.5541 8.84851 8.54087 10.3609 7.56668 7.86813 9.31339 9.22864 10.6608 8.02249 8.26456 9.4835 9.65322 10.7075 8.40438 8.65187 9.88856 10.1985 11.2679 8.91465 9.18359 10.2732 10.1273 11.4387 9.50533 9.78903 10.9909 11.0466 12.2582 10.1459 10.4083 11.6747 11.409 13.2664 10.5753 10.8555 11.9905 11.9747 13.8933 11.1679 11.4394 12.5842 12.7809 13.9953 11.911 12.1887 13.3629 13.3945 14.8147 12.5238 12.8149 14.1141 14.2121 15 13.2328 13.5339 14.7404 14.6863 15 14.1725 14.4179 15 15 14.9447 15 6.26158 6.71641 7.1765 7.51634 7.99804 8.53189 9.01992 9.33124 9.79837 10.2191 10.835 11.5748 12.1797 12.8311 13.381 13.9802 14.4554 15 7.0725 7.31507 8.48527 8.51246 9.96364 7.56122 7.80329 8.8958 8.87717 10.5175 8.05592 8.35834 9.52151 9.45121 10.8504 8.40303 8.62815 9.64466 10.0169 11.1005 8.93522 9.24952 10.5201 10.5034 11.857 9.49191 9.75294 10.8116 11.2376 12.3354 10.0026 10.2492 11.4125 11.8091 13.032 10.3216 10.5366 11.3971 11.7736 12.8587 10.8427 11.1464 12.4547 12.2244 13.9141 11.2883 11.5659 12.6733 12.8122 14.3349 11.9552 12.2299 13.3913 13.3568 14.5882 12.7588 13.0339 14.2042 14.3621 15 13.4047 13.6296 14.7544 14.9071 15 14.13 14.4498 15 15 14.7102 14.9475 15 15 10.176 12.0272 7.48767 7.89863 8.15331 8.60206 9.27866 9.88932 10.8759 12.6393 15 7.96831 8.21412 9.35573 9.52102 10.6402 8.46504 8.75648 10.0175 9.91098 11.4735 8.76975 9.0242 10.1644 10.3729 11.6694 9.35321 9.62265 10.9027 11.0448 12.098 10.2634 10.5653 11.9559 12.1636 13.17 11.1421 11.3631 12.3624 12.645 13.6995 12.9216 13.1966 14.3816 14.3289 15 7.97286 8.25046 8.49175 8.77279 9.24711 9.53583 9.80459 10.1557 10.5873 11.0915 11.7082 12.3934 12.7988 13.3762 14.1022 15 8.66718 8.97 10.35 10.2694 11.6141 8.95204 9.21465 10.3869 10.2285 11.7008 9.21787 9.50841 10.6899 10.5395 12.1223 9.5257 9.83411 11.2126 10.8904 12.713 10.0248 10.3125 11.6691 11.3992 13.0239 10.3549 10.6542 11.9369 11.611 13.5064 10.643 10.9243 12.1345 12.0093 13.6387 11.0227 11.3011 12.5761 12.3776 14.0752 11.4823 11.7146 12.752 13.2577 14.0583 12.0372 12.2416 13.2242 13.4247 14.6082 12.7406 13.0291 14.1699 14.2316 15 13.5 13.7546 14.6858 14.7766 15 13.9565 14.1874 15 15 14.6161 14.8834 15 15 8.38941 8.72849 15 9.68695 9.99937 11.4437 11.1203 13.0669 8.88306 9.3453 9.68677 10.1442 10.5176 10.9885 11.732 12.399 13.0359 14.453 15 9.56464 9.80038 10.8145 10.8585 12.257 10.1396 10.4145 11.7047 11.4933 12.7831 10.5504 10.8614 12.1592 11.9622 13.738 11.1276 11.4148 12.5238 12.5912 13.8751 11.6017 11.8392 12.935 12.7115 14.3173 12.248 12.5345 13.6736 13.5387 15 13.313 13.5455 14.5826 14.6556 15 14.3786 14.6336 15 15 9.44297 9.94652 10.5312 15 10.2437 10.5468 11.8386 11.6737 13.2496 11.3362 11.6002 12.7208 13.4506 13.8272 9.9941 10.4175 10.7779 11.219 11.6973 12.3814 12.8568 13.2004 13.8715 14.3801 14.9314 15 10.5994 10.8636 12.0662 12.4824 13.4019 11.0411 11.2831 12.3229 12.2267 13.7555 11.4343 11.7462 13.154 12.8093 14.6437 11.9164 12.2508 13.8384 13.4596 15 12.3922 12.6553 13.9269 13.9692 15 13.1079 13.3959 14.6763 14.6935 15 13.611 13.9033 15 14.9419 13.9834 14.3062 15 15 14.7043 15 15 11.478 15 11.1331 11.56 12.1312 12.7252 13.5474 14.7554 15 11.7099 11.9714 12.9915 13.0244 14.7812 12.2366 12.5135 13.7187 13.6674 15 12.9596 13.2482 14.5143 14.359 15 13.7361 13.986 15 15 14.9339 15 15 12.8251 15 13.5103 15 13.1562 13.447 13.866 14.1248 14.3587 14.5781 15 14.0069 14.317 15 15 14.307 14.5764 15 15 14.7469 14.9991 15 15 15 14.046 14.4956 14.8245 15 14.653 14.919 15 15 14.816 15 
</DataArray>
<DataArray type="Float32" Name="type" NumberOfComponents="1" format="ascii" >
1 1 1 1 1 1 1 1 1 1 1 1 1 1 1 1 1 1 1 1 1 1 1 1 1 1 1 1 1 1 1 1 1 1 1 1 1 1 1 1 1 1 1 1 1 1 1 1 1 1 1 1 1 1 1 1 1 1 1 1 1 1 1 1 1 1 1 1 1 1 1 1 1 1 1 1 1 1 1 1 1 1 1 1 1 1 1 1 1 1 1 1 1 1 1 1 1 1 1 1 1 1 1 1 1 1 1 1 1 1 1 1 1 1 1 1 1 1 1 1 1 1 1 1 1 1 1 1 1 1 1 1 1 1 1 1 1 1 1 1 1 1 1 1 1 1 1 1 1 1 1 1 1 1 2 2 2 2 2 2 2 2 2 2 3 3 3 4 4 3 3 3 4 4 3 3 3 4 4 3 3 3 4 4 3 3 3 4 4 3 3 3 4 4 3 3 3 4 4 3 3 3 4 4 2 2 2 2 2 2 2 2 2 2 2 2 2 2 2 2 2 2 2 2 2 2 2 2 2 2 2 2 2 2 2 2 3 3 3 4 4 3 3 3 4 4 3 3 3 4 4 3 3 3 4 4 3 3 3 4 4 3 3 3 4 4 3 3 3 4 4 3 3 3 4 4 3 3 3 4 4 3 3 3 4 4 3 3 3 4 4 3 3 3 4 4 3 3 3 4 4 3 3 3 4 4 3 3 3 4 4 3 3 3 4 4 3 3 3 4 4 3 3 3 4 4 3 3 3 4 4 3 3 3 4 4 3 3 3 4 4 3 3 3 4 4 3 3 3 4 4 3 3 3 4 4 3 3 3 4 4 3 3 3 4 4 3 3 3 4 4 3 3 3 4 3 3 3 4 2 2 2 2 2 2 2 2 2 2 2 2 2 2 2 2 2 2 2 2 2 2 2 2 3 3 3 4 4 3 3 3 4 4 3 3 3 4 4 3 3 3 4 4 3 3 3 4 4 3 3 3 4 4 3 3 3 4 4 3 3 3 4 4 3 3 3 4 4 3 3 3 4 4 3 3 3 4 4 3 3 3 4 4 3 3 3 4 4 3 3 3 4 4 3 3 3 4 4 3 3 3 4 4 3 3 3 4 4 3 3 3 4 4 3 3 3 4 4 3 3 3 4 3 2 2 2 2 2 3 3 3 4 4 3 3 3 4 4 3 3 3 4 2 2 2 2 2 2 2 2 2 2 2 2 2 2 2 2 2 2 3 3 3 4 4 3 3 3 4 4 3 3 3 4 4 3 3 3 4 4 3 3 3 4 4 3 3 3 4 4 3 3 3 4 4 3 3 3 4 4 3 3 3 4 4 3 3 3 4 4 3 3 3 4 4 3 3 3 4 4 3 3 3 4 4 3 3 3 4 4 3 3 3 4 4 3 3 3 4 2 2 2 2 2 2 2 2 2 3 3 3 4 4 3 3 3 4 4 3 3 3 4 4 3 3 3 4 4 3 3 3 4 4 3 3 3 4 4 3 3 3 4 4 2 2 2 2 2 2 2 2 2 2 3 3 3 4 4 3 3 3 4 4 3 3 3 4 4 3 3 3 4 4 3 3 3 4 4 2 2 2 2 2 2 2 2 2 2 2 2 2 2 2 2 2 2 2 3 3 3 4 4 3 3 3 4 4 3 3 3 4 4 3 3 3 4 4 3 3 3 4 4 3 3 3 4 4 3 3 3 4 4 3 3 3 4 4 3 3 3 4 4 3 3 3 4 4 3 3 3 4 4 3 3 3 4 4 3 3 3 4 4 3 3 3 4 4 3 3 3 4 4 3 3 3 4 2 2 2 2 2 2 2 2 2 2 2 2 2 2 2 2 2 2 2 3 3 3 4 4 3 3 3 4 4 3 3 3 4 4 3 3 3 4 4 3 3 3 4 4 3 3 3 4 4 3 3 3 4 4 3 3 3 4 4 3 3 3 4 4 3 3 3 4 4 3 3 3 4 4 3 3 3 4 4 3 3 3 4 4 3 3 3 4 2 2 2 2 2 2 2 2 2 2 2 2 2 2 2 2 2 3 3 3 4 4 3 3 3 4 4 3 3 3 4 4 3 3 3 4 4 3 3 3 4 4 3 3 3 4 4 3 3 3 4 4 3 3 3 4 4 3 3 3 4 4 3 3 3 4 4 3 3 3 4 4 3 3 3 4 4 3 3 3 4 4 3 3 3 4 2 2 2 2 2 2 2 2 2 2 2 2 3 3 3 4 4 3 3 3 4 4 3 3 3 4 4 3 3 3 4 4 3 3 3 4 4 3 3 3 4 4 3 3 3 4 4 3 3 3 4 4 3 3 3 4 4 3 3 3 4 4 2 2 2 2 2 2 2 2 2 2 2 2 2 2 2 2 2 2 2 2 2 2 2 3 3 3 4 4 3 3 3 4 4 3 3 3 4 4 3 3 3 4 4 3 3 3 4 4 3 3 3 4 4 3 3 3 4 4 3 3 3 4 4 3 3 3 4 4 3 3 3 4 4 3 3 3 4 4 3 3 3 4 4 3 3 3 4 4 3 3 3 4 4 3 3 3 4 4 3 3 3 4 4 3 3 3 4 4 3 3 3 4 4 3 3 3 4 2 2 2 2 2 2 2 2 2 2 2 2 2 2 2 2 2 3 3 3 4 4 3 3 3 4 4 3 3 3 4 4 3 3 3 4 4 3 3 3 4 4 3 3 3 4 4 3 3 3 4 4 3 3 3 4 4 3 3 3 4 4 3 3 3 4 4 3 3 3 4 4 3 3 3 4 4 3 3 3 4 4 2 2 2 2 2 2 2 2 2 2 2 2 2 2 2 2 2 2 2 2 3 3 3 4 4 3 3 3 4 4 3 3 3 4 4 3 3 3 4 4 3 3 3 4 4 3 3 3 4 4 3 3 3 4 4 3 3 3 4 4 3 3 3 4 4 3 3 3 4 4 3 3 3 4 4 3 3 3 4 4 3 3 3 4 4 3 3 3 4 4 3 3 3 4 4 3 3 3 4 4 3 3 3 4 3 3 4 2 2 2 2 2 2 2 2 2 2 2 2 2 2 2 2 2 2 2 2 3 3 3 4 4 3 3 3 4 4 3 3 3 4 4 3 3 3 4 4 3 3 3 4 4 3 3 3 4 4 3 3 3 4 4 3 3 3 4 4 3 3 3 4 4 3 3 3 4 4 3 3 3 4 4 3 3 3 4 4 3 3 3 4 4 3 3 3 4 4 3 3 3 4 4 3 3 3 4 2 2 2 2 2 2 2 2 2 2 2 2 2 2 2 2 2 2 3 3 3 4 4 3 3 3 4 4 3 3 3 4 4 3 3 3 4 4 3 3 3 4 4 3 3 3 4 4 3 3 3 4 4 3 3 3 4 4 3 3 3 4 4 3 3 3 4 4 3 3 3 4 4 3 3 3 4 4 3 3 3 4 4 3 3 3 4 3 3 2 2 2 2 2 2 2 2 2 2 2 2 2 2 2 2 2 2 3 3 3 4 4 3 3 3 4 4 3 3 3 4 4 3 3 3 4 4 3 3 3 4 4 3 3 3 4 4 3 3 3 4 4 3 3 3 4 4 3 3 3 4 4 3 3 3 4 4 3 3 3 4 4 3 3 3 4 4 3 3 3 4 4 3 3 3 4 3 3 3 4 2 2 2 2 2 2 2 2 2 2 2 3 3 3 4 4 3 3 3 4 4 3 3 3 4 4 3 3 3 4 4 3 3 3 4 4 3 3 3 4 4 3 3 3 4 4 2 2 2 2 2 2 2 2 2 2 2 2 2 2 2 2 3 3 3 4 4 3 3 3 4 4 3 3 3 4 4 3 3 3 4 4 3 3 3 4 4 3 3 3 4 4 3 3 3 4 4 3 3 3 4 4 3 3 3 4 4 3 3 3 4 4 3 3 3 4 4 3 3 3 4 4 3 3 3 4 3 3 3 4 2 2 2 3 3 3 4 4 2 2 2 2 2 2 2 2 2 2 2 3 3 3 4 4 3 3 3 4 4 3 3 3 4 4 3 3 3 4 4 3 3 3 4 4 3 3 3 4 4 3 3 3 4 4 3 3 3 4 2 2 2 2 3 3 3 4 4 3 3 3 4 4 2 2 2 2 2 2 2 2 2 2 2 2 3 3 3 4 4 3 3 3 4 4 3 3 3 4 4 3 3 3 4 4 3 3 3 4 4 3 3 3 4 4 3 3 3 4 3 3 3 4 3 3 4 2 2 2 2 2 2 2 2 2 3 3 3 4 4 3 3 3 4 4 3 3 3 4 4 3 3 3 4 3 3 4 2 2 2 2 2 2 2 2 2 2 2 3 3 3 4 3 3 3 4 3 3 3 4 3 2 2 2 2 3 3 3 4 2 2 
</DataArray>
<DataArray type="Float32" Name="order" NumberOfComponents="1" format="ascii" >
0 0 0 0 0 0 0 0 0 0 0 0 0 0 0 0 0 0 0 0 0 0 0 0 0 0 0 0 0 0 0 0 0 0 0 0 0 0 0 0 0 0 0 0 0 0 0 0 0 0 0 0 0 0 0 0 0 0 0 0 0 0 0 0 0 0 0 0 0 0 0 0 0 0 0 0 0 0 0 0 0 0 0 0 0 0 0 0 0 0 0 0 0 0 0 0 0 0 0 0 0 0 0 0 0 0 0 0 0 0 0 0 0 0 0 0 0 0 0 0 0 0 0 0 0 0 0 0 0 0 0 0 0 0 0 0 0 0 0 0 0 0 0 0 0 0 0 0 0 0 0 0 0 0 1 1 1 1 1 1 1 1 1 1 2 2 2 3 3 2 2 2 3 3 2 2 2 3 3 2 2 2 3 3 2 2 2 3 3 2 2 2 3 3 2 2 2 3 3 2 2 2 3 3 1 1 1 1 1 1 1 1 1 1 1 1 1 1 1 1 1 1 1 1 1 1 1 1 1 1 1 1 1 1 1 1 2 2 2 3 3 2 2 2 3 3 2 2 2 3 3 2 2 2 3 3 2 2 2 3 3 2 2 2 3 3 2 2 2 3 3 2 2 2 3 3 2 2 2 3 3 2 2 2 3 3 2 2 2 3 3 2 2 2 3 3 2 2 2 3 3 2 2 2 3 3 2 2 2 3 3 2 2 2 3 3 2 2 2 3 3 2 2 2 3 3 2 2 2 3 3 2 2 2 3 3 2 2 2 3 3 2 2 2 3 3 2 2 2 3 3 2 2 2 3 3 2 2 2 3 3 2 2 2 3 3 2 2 2 3 3 2 2 2 3 2 2 2 3 1 1 1 1 1 1 1 1 1 1 1 1 1 1 1 1 1 1 1 1 1 1 1 1 2 2 2 3 3 2 2 2 3 3 2 2 2 3 3 2 2 2 3 3 2 2 2 3 3 2 2 2 3 3 2 2 2 3 3 2 2 2 3 3 2 2 2 3 3 2 2 2 3 3 2 2 2 3 3 2 2 2 3 3 2 2 2 3 3 2 2 2 3 3 2 2 2 3 3 2 2 2 3 3 2 2 2 3 3 2 2 2 3 3 2 2 2 3 3 2 2 2 3 2 1 1 1 1 1 2 2 2 3 3 2 2 2 3 3 2 2 2 3 1 1 1 1 1 1 1 1 1 1 1 1 1 1 1 1 1 1 2 2 2 3 3 2 2 2 3 3 2 2 2 3 3 2 2 2 3 3 2 2 2 3 3 2 2 2 3 3 2 2 2 3 3 2 2 2 3 3 2 2 2 3 3 2 2 2 3 3 2 2 2 3 3 2 2 2 3 3 2 2 2 3 3 2 2 2 3 3 2 2 2 3 3 2 2 2 3 1 1 1 1 1 1 1 1 1 2 2 2 3 3 2 2 2 3 3 2 2 2 3 3 2 2 2 3 3 2 2 2 3 3 2 2 2 3 3 2 2 2 3 3 1 1 1 1 1 1 1 1 1 1 2 2 2 3 3 2 2 2 3 3 2 2 2 3 3 2 2 2 3 3 2 2 2 3 3 1 1 1 1 1 1 1 1 1 1 1 1 1 1 1 1 1 1 1 2 2 2 3 3 2 2 2 3 3 2 2 2 3 3 2 2 2 3 3 2 2 2 3 3 2 2 2 3 3 2 2 2 3 3 2 2 2 3 3 2 2 2 3 3 2 2 2 3 3 2 2 2 3 3 2 2 2 3 3 2 2 2 3 3 2 2 2 3 3 2 2 2 3 3 2 2 2 3 1 1 1 1 1 1 1 1 1 1 1 1 1 1 1 1 1 1 1 2 2 2 3 3 2 2 2 3 3 2 2 2 3 3 2 2 2 3 3 2 2 2 3 3 2 2 2 3 3 2 2 2 3 3 2 2 2 3 3 2 2 2 3 3 2 2 2 3 3 2 2 2 3 3 2 2 2 3 3 2 2 2 3 3 2 2 2 3 1 1 1 1 1 1 1 1 1 1 1 1 1 1 1 1 1 2 2 2 3 3 2 2 2 3 3 2 2 2 3 3 2 2 2 3 3 2 2 2 3 3 2 2 2 3 3 2 2 2 3 3 2 2 2 3 3 2 2 2 3 3 2 2 2 3 3 2 2 2 3 3 2 2 2 3 3 2 2 2 3 3 2 2 2 3 1 1 1 1 1 1 1 1 1 1 1 1 2 2 2 3 3 2 2 2 3 3 2 2 2 3 3 2 2 2 3 3 2 2 2 3 3 2 2 2 3 3 2 2 2 3 3 2 2 2 3 3 2 2 2 3 3 2 2 2 3 3 1 1 1 1 1 1 1 1 1 1 1 1 1 1 1 1 1 1 1 1 1 1 1 2 2 2 3 3 2 2 2 3 3 2 2 2 3 3 2 2 2 3 3 2 2 2 3 3 2 2 2 3 3 2 2 2 3 3 2 2 2 3 3 2 2 2 3 3 2 2 2 3 3 2 2 2 3 3 2 2 2 3 3 2 2 2 3 3 2 2 2 3 3 2 2 2 3 3 2 2 2 3 3 2 2 2 3 3 2 2 2 3 3 2 2 2 3 1 1 1 1 1 1 1 1 1 1 1 1 1 1 1 1 1 2 2 2 3 3 2 2 2 3 3 2 2 2 3 3 2 2 2 3 3 2 2 2 3 3 2 2 2 3 3 2 2 2 3 3 2 2 2 3 3 2 2 2 3 3 2 2 2 3 3 2 2 2 3 3 2 2 2 3 3 2 2 2 3 3 1 1 1 1 1 1 1 1 1 1 1 1 1 1 1 1 1 1 1 1 2 2 2 3 3 2 2 2 3 3 2 2 2 3 3 2 2 2 3 3 2 2 2 3 3 2 2 2 3 3 2 2 2 3 3 2 2 2 3 3 2 2 2 3 3 2 2 2 3 3 2 2 2 3 3 2 2 2 3 3 2 2 2 3 3 2 2 2 3 3 2 2 2 3 3 2 2 2 3 3 2 2 2 3 2 2 3 1 1 1 1 1 1 1 1 1 1 1 1 1 1 1 1 1 1 1 1 2 2 2 3 3 2 2 2 3 3 2 2 2 3 3 2 2 2 3 3 2 2 2 3 3 2 2 2 3 3 2 2 2 3 3 2 2 2 3 3 2 2 2 3 3 2 2 2 3 3 2 2 2 3 3 2 2 2 3 3 2 2 2 3 3 2 2 2 3 3 2 2 2 3 3 2 2 2 3 1 1 1 1 1 1 1 1 1 1 1 1 1 1 1 1 1 1 2 2 2 3 3 2 2 2 3 3 2 2 2 3 3 2 2 2 3 3 2 2 2 3 3 2 2 2 3 3 2 2 2 3 3 2 2 2 3 3 2 2 2 3 3 2 2 2 3 3 2 2 2 3 3 2 2 2 3 3 2 2 2 3 3 2 2 2 3 2 2 1 1 1 1 1 1 1 1 1 1 1 1 1 1 1 1 1 1 2 2 2 3 3 2 2 2 3 3 2 2 2 3 3 2 2 2 3 3 2 2 2 3 3 2 2 2 3 3 2 2 2 3 3 2 2 2 3 3 2 2 2 3 3 2 2 2 3 3 2 2 2 3 3 2 2 2 3 3 2 2 2 3 3 2 2 2 3 2 2 2 3 1 1 1 1 1 1 1 1 1 1 1 2 2 2 3 3 2 2 2 3 3 2 2 2 3 3 2 2 2 3 3 2 2 2 3 3 2 2 2 3 3 2 2 2 3 3 1 1 1 1 1 1 1 1 1 1 1 1 1 1 1 1 2 2 2 3 3 2 2 2 3 3 2 2 2 3 3 2 2 2 3 3 2 2 2 3 3 2 2 2 3 3 2 2 2 3 3 2 2 2 3 3 2 2 2 3 3 2 2 2 3 3 2 2 2 3 3 2 2 2 3 3 2 2 2 3 2 2 2 3 1 1 1 2 2 2 3 3 1 1 1 1 1 1 1 1 1 1 1 2 2 2 3 3 2 2 2 3 3 2 2 2 3 3 2 2 2 3 3 2 2 2 3 3 2 2 2 3 3 2 2 2 3 3 2 2 2 3 1 1 1 1 2 2 2 3 3 2 2 2 3 3 1 1 1 1 1 1 1 1 1 1 1 1 2 2 2 3 3 2 2 2 3 3 2 2 2 3 3 2 2 2 3 3 2 2 2 3 3 2 2 2 3 3 2 2 2 3 2 2 2 3 2 2 3 1 1 1 1 1 1 1 1 1 2 2 2 3 3 2 2 2 3 3 2 2 2 3 3 2 2 2 3 2 2 3 1 1 1 1 1 1 1 1 1 1 1 2 2 2 3 2 2 2 3 2 2 2 3 2 1 1 1 1 2 2 2 3 1 1 
</DataArray>
<DataArray type="Float32" Name="radius" NumberOfComponents="1" format="ascii" >